 vasp.5.4.4.18Apr17-6-g9f103f2a35 (build Feb 01 2019 03:23:26) complex          
  
 executed on             LinuxIFC date 2020.05.31  10:51:29
 running on   16 total cores
 distrk:  each k-point on   16 cores,    1 groups
 distr:  one band on NCORES_PER_BAND=   1 cores,   16 groups


--------------------------------------------------------------------------------------------------------


 INCAR:
 POTCAR:    PAW_PBE Si 05Jan2001                  
 POTCAR:    PAW_PBE H 15Jun2001                   
 POTCAR:    PAW_PBE C 08Apr2002                   

 ----------------------------------------------------------------------------- 
|                                                                             |
|           W    W    AA    RRRRR   N    N  II  N    N   GGGG   !!!           |
|           W    W   A  A   R    R  NN   N  II  NN   N  G    G  !!!           |
|           W    W  A    A  R    R  N N  N  II  N N  N  G       !!!           |
|           W WW W  AAAAAA  RRRRR   N  N N  II  N  N N  G  GGG   !            |
|           WW  WW  A    A  R   R   N   NN  II  N   NN  G    G                |
|           W    W  A    A  R    R  N    N  II  N    N   GGGG   !!!           |
|                                                                             |
|      For optimal performance we recommend to set                            |
|        NCORE= 4 - approx SQRT( number of cores)                             |
|      NCORE specifies how many cores store one orbital (NPAR=cpu/NCORE).     |
|      This setting can  greatly improve the performance of VASP for DFT.     |
|      The default,   NCORE=1            might be grossly inefficient         |
|      on modern multi-core architectures or massively parallel machines.     |
|      Do your own testing !!!!                                               |
|      Unfortunately you need to use the default for GW and RPA calculations. |
|      (for HF NCORE is supported but not extensively tested yet)             |
|                                                                             |
 ----------------------------------------------------------------------------- 

 POTCAR:    PAW_PBE Si 05Jan2001                  
   VRHFIN =Si: s2p2                                                             
   LEXCH  = PE                                                                  
   EATOM  =   103.0669 eV,    7.5752 Ry                                         
                                                                                
   TITEL  = PAW_PBE Si 05Jan2001                                                
   LULTRA =        F    use ultrasoft PP ?                                      
   IUNSCR =        1    unscreen: 0-lin 1-nonlin 2-no                           
   RPACOR =    1.500    partial core radius                                     
   POMASS =   28.085; ZVAL   =    4.000    mass and valenz                      
   RCORE  =    1.900    outmost cutoff radius                                   
   RWIGS  =    2.480; RWIGS  =    1.312    wigner-seitz radius (au A)           
   ENMAX  =  245.345; ENMIN  =  184.009 eV                                      
   ICORE  =        2    local potential                                         
   LCOR   =        T    correct aug charges                                     
   LPAW   =        T    paw PP                                                  
   EAUG   =  322.069                                                            
   DEXC   =    0.000                                                            
   RMAX   =    1.950    core radius for proj-oper                               
   RAUG   =    1.300    factor for augmentation sphere                          
   RDEP   =    1.993    radius for radial grids                                 
   RDEPT  =    1.837    core radius for aug-charge                              
                                                                                
   Atomic configuration                                                         
    6 entries                                                                   
     n  l   j            E        occ.                                          
     1  0  0.50     -1785.8828   2.0000                                         
     2  0  0.50      -139.4969   2.0000                                         
     2  1  1.50       -95.5546   6.0000                                         
     3  0  0.50       -10.8127   2.0000                                         
     3  1  0.50        -4.0811   2.0000                                         
     3  2  1.50        -4.0817   0.0000                                         
   Description                                                                  
     l       E           TYP  RCUT    TYP  RCUT                                 
     0    -10.8127223     23  1.900                                             
     0     -7.6451159     23  1.900                                             
     1     -4.0811372     23  1.900                                             
     1      2.4879257     23  1.900                                             
     2     -4.0817478      7  1.900                                             
  local pseudopotential read in
  partial core-charges read in
  partial kinetic energy density read in
  atomic valenz-charges read in
  non local Contribution for L=           0  read in
    real space projection operators read in
  non local Contribution for L=           0  read in
    real space projection operators read in
  non local Contribution for L=           1  read in
    real space projection operators read in
  non local Contribution for L=           1  read in
    real space projection operators read in
    PAW grid and wavefunctions read in
 
   number of l-projection  operators is LMAX  =           4
   number of lm-projection operators is LMMAX =           8
 
 POTCAR:    PAW_PBE H 15Jun2001                   
   VRHFIN =H: ultrasoft test                                                    
   LEXCH  = PE                                                                  
   EATOM  =    12.4884 eV,    0.9179 Ry                                         
                                                                                
   TITEL  = PAW_PBE H 15Jun2001                                                 
   LULTRA =        F    use ultrasoft PP ?                                      
   IUNSCR =        0    unscreen: 0-lin 1-nonlin 2-no                           
   RPACOR =    0.000    partial core radius                                     
   POMASS =    1.000; ZVAL   =    1.000    mass and valenz                      
   RCORE  =    1.100    outmost cutoff radius                                   
   RWIGS  =    0.700; RWIGS  =    0.370    wigner-seitz radius (au A)           
   ENMAX  =  250.000; ENMIN  =  200.000 eV                                      
   RCLOC  =    0.701    cutoff for local pot                                    
   LCOR   =        T    correct aug charges                                     
   LPAW   =        T    paw PP                                                  
   EAUG   =  400.000                                                            
   RMAX   =    1.123    core radius for proj-oper                               
   RAUG   =    1.200    factor for augmentation sphere                          
   RDEP   =    1.112    radius for radial grids                                 
   RDEPT  =    0.926    core radius for aug-charge                              
                                                                                
   Atomic configuration                                                         
    2 entries                                                                   
     n  l   j            E        occ.                                          
     1  0  0.50        -6.4927   1.0000                                         
     2  1  0.50        -3.4015   0.0000                                         
   Description                                                                  
     l       E           TYP  RCUT    TYP  RCUT                                 
     0     -6.4927494     23  1.100                                             
     0      6.8029130     23  1.100                                             
     1     -4.0817478     23  1.100                                             
  local pseudopotential read in
  atomic valenz-charges read in
  non local Contribution for L=           0  read in
    real space projection operators read in
  non local Contribution for L=           0  read in
    real space projection operators read in
  non local Contribution for L=           1  read in
    real space projection operators read in
    PAW grid and wavefunctions read in
 
   number of l-projection  operators is LMAX  =           3
   number of lm-projection operators is LMMAX =           5
 
 POTCAR:    PAW_PBE C 08Apr2002                   
   VRHFIN =C: s2p2                                                              
   LEXCH  = PE                                                                  
   EATOM  =   147.1560 eV,   10.8157 Ry                                         
                                                                                
   TITEL  = PAW_PBE C 08Apr2002                                                 
   LULTRA =        F    use ultrasoft PP ?                                      
   IUNSCR =        1    unscreen: 0-lin 1-nonlin 2-no                           
   RPACOR =    1.200    partial core radius                                     
   POMASS =   12.011; ZVAL   =    4.000    mass and valenz                      
   RCORE  =    1.500    outmost cutoff radius                                   
   RWIGS  =    1.630; RWIGS  =    0.863    wigner-seitz radius (au A)           
   ENMAX  =  400.000; ENMIN  =  300.000 eV                                      
   ICORE  =        2    local potential                                         
   LCOR   =        T    correct aug charges                                     
   LPAW   =        T    paw PP                                                  
   EAUG   =  644.873                                                            
   DEXC   =    0.000                                                            
   RMAX   =    1.529    core radius for proj-oper                               
   RAUG   =    1.300    factor for augmentation sphere                          
   RDEP   =    1.501    radius for radial grids                                 
   RDEPT  =    1.300    core radius for aug-charge                              
                                                                                
   Atomic configuration                                                         
    4 entries                                                                   
     n  l   j            E        occ.                                          
     1  0  0.50      -273.3789   2.0000                                         
     2  0  0.50       -13.7508   2.0000                                         
     2  1  0.50        -5.2854   2.0000                                         
     3  2  1.50        -5.4423   0.0000                                         
   Description                                                                  
     l       E           TYP  RCUT    TYP  RCUT                                 
     0    -13.7508458     23  1.200                                             
     0     -8.2022199     23  1.200                                             
     1     -5.2854383     23  1.500                                             
     1     34.0145650     23  1.500                                             
     2     -5.4423304      7  1.500                                             
  local pseudopotential read in
  partial core-charges read in
  partial kinetic energy density read in
  atomic valenz-charges read in
  non local Contribution for L=           0  read in
    real space projection operators read in
  non local Contribution for L=           0  read in
    real space projection operators read in
  non local Contribution for L=           1  read in
    real space projection operators read in
  non local Contribution for L=           1  read in
    real space projection operators read in
    PAW grid and wavefunctions read in
 
   number of l-projection  operators is LMAX  =           4
   number of lm-projection operators is LMMAX =           8
 
 Optimization of the real space projectors (new method)

 maximal supplied QI-value         = 19.84
 optimisation between [QCUT,QGAM] = [ 12.50, 25.00] = [ 43.76,175.03] Ry 
 Optimized for a Real-space Cutoff    1.16 Angstroem

   l    n(q)    QCUT    max X(q) W(low)/X(q) W(high)/X(q)  e(spline) 
   0      9    12.501   159.560    0.10E-03    0.83E-04    0.71E-07
   0      9    12.501   115.863    0.99E-04    0.81E-04    0.70E-07
   1      8    12.501    88.339    0.20E-03    0.25E-03    0.76E-07
   1      8    12.501    48.592    0.20E-03    0.24E-03    0.75E-07
 Optimization of the real space projectors (new method)

 maximal supplied QI-value         = 34.20
 optimisation between [QCUT,QGAM] = [ 12.31, 24.97] = [ 42.46,174.58] Ry 
 Optimized for a Real-space Cutoff    1.13 Angstroem

   l    n(q)    QCUT    max X(q) W(low)/X(q) W(high)/X(q)  e(spline) 
   0      8    12.313    19.460    0.10E-03    0.25E-03    0.27E-06
   0      8    12.313    12.209    0.92E-04    0.23E-03    0.26E-06
   1      8    12.313     4.655    0.24E-03    0.28E-03    0.15E-06
 Optimization of the real space projectors (new method)

 maximal supplied QI-value         = 25.13
 optimisation between [QCUT,QGAM] = [ 12.32, 24.88] = [ 42.47,173.37] Ry 
 Optimized for a Real-space Cutoff    1.16 Angstroem

   l    n(q)    QCUT    max X(q) W(low)/X(q) W(high)/X(q)  e(spline) 
   0      9    12.315   115.676    0.19E-03    0.80E-05    0.34E-06
   0      9    12.315    87.132    0.19E-03    0.82E-05    0.34E-06
   1      8    12.315     4.429    0.18E-03    0.13E-03    0.22E-06
   1      8    12.315     2.733    0.14E-03    0.10E-03    0.18E-06
  PAW_PBE Si 05Jan2001                  :
 energy of atom  1       EATOM= -103.0669
 kinetic energy error for atom=    0.0003 (will be added to EATOM!!)
  PAW_PBE H 15Jun2001                   :
 energy of atom  2       EATOM=  -12.4884
 kinetic energy error for atom=    0.0004 (will be added to EATOM!!)
  PAW_PBE C 08Apr2002                   :
 energy of atom  3       EATOM= -147.1560
 kinetic energy error for atom=    0.0057 (will be added to EATOM!!)
 
 
 POSCAR: Si2 H54 C44  [TRI,TRI1b,aP100] (STD_PRIM
  positions in direct lattice
  No initial velocities read in
 exchange correlation table for  LEXCH =        8
   RHO(1)=    0.500       N(1)  =     2000
   RHO(2)=  100.500       N(2)  =     4000
 


--------------------------------------------------------------------------------------------------------


 ion  position               nearest neighbor table
   1  0.753  0.323  0.704-  60 1.83  62 1.90  57 1.90  61 1.90
   2  0.247  0.677  0.296-  87 1.83  94 1.90  92 1.90  93 1.90
   3  0.046  0.283  0.670-  57 1.11
   4  0.060  0.416  0.514-  58 1.10
   5  0.259  0.419  0.663-  58 1.10
   6  0.081  0.470  0.717-  58 1.10
   7  0.020  0.279  0.999-  59 1.10
   8  0.080  0.387  0.009-  59 1.10
   9  0.240  0.328  0.943-  59 1.10
  10  0.731  0.373  0.404-  61 1.10
  11  0.495  0.379  0.782-  62 1.10
  12  0.723  0.188  0.428-  64 1.10
  13  0.913  0.263  0.378-  64 1.10
  14  0.712  0.241  0.229-  64 1.10
  15  0.424  0.291  0.281-  65 1.10
  16  0.404  0.346  0.474-  65 1.10
  17  0.404  0.240  0.484-  65 1.10
  18  0.598  0.530  0.765-  66 1.10
  19  0.646  0.482  0.573-  66 1.10
  20  0.826  0.517  0.738-  66 1.10
  21  0.836  0.440  0.040-  67 1.10
  22  0.659  0.355  0.071-  67 1.10
  23  0.609  0.456  0.061-  67 1.10
  24  0.901  0.150  0.048-  71 1.09
  25  0.275  0.136  0.749-  74 1.09
  26  0.725  0.864  0.251-  77 1.09
  27  0.099  0.850  0.952-  78 1.09
  28  0.212  0.160  0.203-  80 1.09
  29  0.959  0.129  0.603-  84 1.09
  30  0.439  0.095  0.382-  85 1.09
  31  0.041  0.871  0.397-  86 1.09
  32  0.788  0.840  0.797-  88 1.09
  33  0.647  0.049  0.522-  89 1.09
  34  0.353  0.951  0.478-  90 1.09
  35  0.561  0.905  0.618-  91 1.09
  36  0.954  0.717  0.330-  92 1.11
  37  0.269  0.627  0.596-  93 1.10
  38  0.505  0.621  0.218-  94 1.10
  39  0.940  0.584  0.486-  95 1.10
  40  0.741  0.581  0.337-  95 1.10
  41  0.919  0.530  0.283-  95 1.10
  42  0.980  0.721  0.001-  96 1.10
  43  0.920  0.613  0.991-  96 1.10
  44  0.760  0.672  0.057-  96 1.10
  45  0.277  0.812  0.572-  97 1.10
  46  0.087  0.737  0.622-  97 1.10
  47  0.288  0.759  0.771-  97 1.10
  48  0.576  0.709  0.719-  98 1.10
  49  0.596  0.654  0.526-  98 1.10
  50  0.596  0.760  0.516-  98 1.10
  51  0.402  0.470  0.235-  99 1.10
  52  0.354  0.518  0.427-  99 1.10
  53  0.174  0.483  0.262-  99 1.10
  54  0.164  0.560  0.960- 100 1.10
  55  0.341  0.645  0.929- 100 1.10
  56  0.391  0.544  0.939- 100 1.10
  57  0.015  0.336  0.741-   3 1.11  58 1.53  59 1.53   1 1.90
  58  0.108  0.414  0.654-   4 1.10   6 1.10   5 1.10  57 1.53
  59  0.092  0.332  0.933-   8 1.10   7 1.10   9 1.10  57 1.53
  60  0.660  0.226  0.806-  63 1.23   1 1.83
  61  0.677  0.313  0.459-  10 1.10  64 1.53  65 1.53   1 1.90
  62  0.644  0.405  0.806-  11 1.10  67 1.53  66 1.53   1 1.90
  63  0.607  0.160  0.871-  60 1.23  68 1.41
  64  0.761  0.248  0.369-  13 1.10  12 1.10  14 1.10  61 1.53
  65  0.466  0.297  0.423-  16 1.10  17 1.10  15 1.10  61 1.53
  66  0.680  0.488  0.715-  19 1.10  20 1.10  18 1.10  62 1.53
  67  0.689  0.414  0.005-  22 1.10  21 1.10  23 1.10  62 1.53
  68  0.552  0.081  0.939-  63 1.41  70 1.42  69 1.42
  69  0.682  0.045  0.047-  71 1.41  68 1.42  72 1.45
  70  0.369  0.038  0.893-  74 1.41  68 1.42  73 1.45
  71  0.862  0.088  0.095-  24 1.09  75 1.39  69 1.41
  72  0.631  0.962  0.107-  77 1.41  76 1.42  69 1.45
  73  0.318  0.955  0.953-  78 1.41  76 1.42  70 1.45
  74  0.237  0.073  0.792-  25 1.09  79 1.39  70 1.41
  75  0.992  0.053  0.197-  71 1.39  80 1.43  81 1.45
  76  0.448  0.919  0.061-  82 1.41  72 1.42  73 1.42
  77  0.763  0.927  0.208-  26 1.09  81 1.39  72 1.41
  78  0.138  0.912  0.905-  27 1.09  83 1.39  73 1.41
  79  0.058  0.030  0.746-  74 1.39  84 1.43  83 1.45
  80  0.174  0.097  0.247-  28 1.09  85 1.37  75 1.43
  81  0.942  0.970  0.254-  77 1.39  86 1.43  75 1.45
  82  0.393  0.840  0.129-  87 1.23  76 1.41
  83  0.008  0.947  0.803-  78 1.39  88 1.43  79 1.45
  84  0.922  0.066  0.645-  29 1.09  89 1.37  79 1.43
  85  0.300  0.061  0.346-  30 1.09  80 1.37  90 1.42
  86  0.078  0.934  0.355-  31 1.09  90 1.37  81 1.43
  87  0.340  0.774  0.194-  82 1.23   2 1.83
  88  0.826  0.903  0.753-  32 1.09  91 1.37  83 1.43
  89  0.749  0.022  0.600-  33 1.09  84 1.37  91 1.42
  90  0.251  0.978  0.400-  34 1.09  86 1.37  85 1.42
  91  0.700  0.939  0.654-  35 1.09  88 1.37  89 1.42
  92  0.985  0.664  0.259-  36 1.11  95 1.53  96 1.53   2 1.90
  93  0.323  0.687  0.541-  37 1.10  97 1.53  98 1.53   2 1.90
  94  0.356  0.595  0.194-  38 1.10 100 1.53  99 1.53   2 1.90
  95  0.892  0.586  0.346-  39 1.10  41 1.10  40 1.10  92 1.53
  96  0.908  0.668  0.067-  43 1.10  42 1.10  44 1.10  92 1.53
  97  0.239  0.752  0.631-  46 1.10  45 1.10  47 1.10  93 1.53
  98  0.534  0.703  0.577-  49 1.10  50 1.10  48 1.10  93 1.53
  99  0.320  0.512  0.285-  52 1.10  53 1.10  51 1.10  94 1.53
 100  0.311  0.586  0.995-  55 1.10  54 1.10  56 1.10  94 1.53
 
  LATTYP: Found a triclinic cell.
 ALAT       =     7.3882606431
 B/A-ratio  =     2.6178404329
 C/A-ratio  =     1.0363365615
 COS(alpha) =     0.0318330830
 COS(beta)  =     0.0924336005
 COS(gamma) =     0.5371410586
  
  Lattice vectors:
  
 A1 = (   7.3882606431,   0.0000000000,   0.0000000000)
 A2 = (  10.3889996111, -16.3142295845,   0.0000000000)
 A3 = (   0.7077386252,   0.1617303474,  -7.6222294242)


Analysis of symmetry for initial positions (statically):
=====================================================================
 Subroutine PRICEL returns:
 Original cell was already a primitive cell.
 

 Routine SETGRP: Setting up the symmetry group for a 
 triclinic supercell.


 Subroutine GETGRP returns: Found  2 space group operations
 (whereof  2 operations were pure point group operations)
 out of a pool of  2 trial point group operations.


The static configuration has the point symmetry S_2 .


Analysis of symmetry for dynamics (positions and initial velocities):
=====================================================================
 Subroutine PRICEL returns:
 Original cell was already a primitive cell.
 

 Routine SETGRP: Setting up the symmetry group for a 
 triclinic supercell.


 Subroutine GETGRP returns: Found  2 space group operations
 (whereof  2 operations were pure point group operations)
 out of a pool of  2 trial point group operations.


The dynamic configuration has the point symmetry S_2 .


 Subroutine INISYM returns: Found  2 space group operations
 (whereof  2 operations are pure point group operations),
 and found     1 'primitive' translations

 
 
 KPOINTS: pymatgen v2020.3.2 with grid density = 2

Automatic generation of k-mesh.
Space group operators:
 irot       det(A)        alpha          n_x          n_y          n_z        tau_x        tau_y        tau_z
    1     1.000000     0.000000     1.000000     0.000000     0.000000     0.000000     0.000000     0.000000
    2    -1.000000     0.000000     1.000000     0.000000     0.000000     0.000000     0.000000     0.000000
 
 Subroutine IBZKPT returns following result:
 ===========================================
 
 Found      5 irreducible k-points:
 
 Following reciprocal coordinates:
            Coordinates               Weight
  0.000000  0.000000  0.000000      1.000000
  0.333333  0.000000  0.000000      2.000000
  0.000000  0.333333  0.000000      2.000000
  0.333333  0.333333  0.000000      2.000000
 -0.333333  0.333333 -0.000000      2.000000
 
 Following cartesian coordinates:
            Coordinates               Weight
  0.000000  0.000000  0.000000      1.000000
  0.045117  0.008298  0.004365      2.000000
  0.000000  0.020432  0.000434      2.000000
  0.045117  0.028731  0.004799      2.000000
 -0.045117  0.012134 -0.003932      2.000000
 


--------------------------------------------------------------------------------------------------------




 Dimension of arrays:
   k-points           NKPTS =      5   k-points in BZ     NKDIM =      5   number of bands    NBANDS=    176
   number of dos      NEDOS =   2000   number of ions     NIONS =    100
   non local maximal  LDIM  =      4   non local SUM 2l+1 LMDIM =      8
   total plane-waves  NPLWV = 537600
   max r-space proj   IRMAX =   3885   max aug-charges    IRDMAX=  19762
   dimension x,y,z NGX =    60 NGY =  140 NGZ =   64
   dimension x,y,z NGXF=   120 NGYF=  280 NGZF=  128
   support grid    NGXF=   120 NGYF=  280 NGZF=  128
   ions per type =               2  54  44
   NGX,Y,Z   is equivalent  to a cutoff of  13.50, 14.03, 13.90 a.u.
   NGXF,Y,Z  is equivalent  to a cutoff of  27.00, 28.06, 27.79 a.u.

 SYSTEM =  Static scf                              
 POSCAR =  Si2 H54 C44  [TRI,TRI1b,aP100] (STD_PRIM

 Startparameter for this run:
   NWRITE =      2    write-flag & timer
   PREC   = accura    normal or accurate (medium, high low for compatibility)
   ISTART =      0    job   : 0-new  1-cont  2-samecut
   ICHARG =      0    charge: 1-file 2-atom 10-const
   ISPIN  =      1    spin polarized calculation?
   LNONCOLLINEAR =      F non collinear calculations
   LSORBIT =      F    spin-orbit coupling
   INIWAV =      1    electr: 0-lowe 1-rand  2-diag
   LASPH  =      T    aspherical Exc in radial PAW
   METAGGA=      F    non-selfconsistent MetaGGA calc.

 Electronic Relaxation 1
   ENCUT  =  600.0 eV  44.10 Ry    6.64 a.u.  14.76 33.13 15.29*2*pi/ulx,y,z
   ENINI  =  600.0     initial cutoff
   ENAUG  =  644.9 eV  augmentation charge cutoff
   NELM   =    200;   NELMIN=  2; NELMDL= -5     # of ELM steps 
   EDIFF  = 0.1E-05   stopping-criterion for ELM
   LREAL  =      T    real-space projection
   NLSPLINE    = F    spline interpolate recip. space projectors
   LCOMPAT=      F    compatible to vasp.4.4
   GGA_COMPAT  = T    GGA compatible to vasp.4.4-vasp.4.6
   LMAXPAW     = -100 max onsite density
   LMAXMIX     =    2 max onsite mixed and CHGCAR
   VOSKOWN=      0    Vosko Wilk Nusair interpolation
   ROPT   =   -0.00025  -0.00025  -0.00025
 Ionic relaxation
   EDIFFG = -.2E-01   stopping-criterion for IOM
   NSW    =      0    number of steps for IOM
   NBLOCK =      1;   KBLOCK =      1    inner block; outer block 
   IBRION =     -1    ionic relax: 0-MD 1-quasi-New 2-CG
   NFREE  =      0    steps in history (QN), initial steepest desc. (CG)
   ISIF   =      3    stress and relaxation
   IWAVPR =     10    prediction:  0-non 1-charg 2-wave 3-comb
   ISYM   =      2    0-nonsym 1-usesym 2-fastsym
   LCORR  =      T    Harris-Foulkes like correction to forces

   POTIM  = 0.5000    time-step for ionic-motion
   TEIN   =    0.0    initial temperature
   TEBEG  =    0.0;   TEEND  =   0.0 temperature during run
   SMASS  =  -3.00    Nose mass-parameter (am)
   estimated Nose-frequenzy (Omega)   =  0.10E-29 period in steps =****** mass=  -0.125E-26a.u.
   SCALEE = 1.0000    scale energy and forces
   NPACO  =    256;   APACO  = 16.0  distance and # of slots for P.C.
   PSTRESS=    0.0 pullay stress

  Mass of Ions in am
   POMASS =  28.09  1.00 12.01
  Ionic Valenz
   ZVAL   =   4.00  1.00  4.00
  Atomic Wigner-Seitz radii
   RWIGS  =  -1.00 -1.00 -1.00
  virtual crystal weights 
   VCA    =   1.00  1.00  1.00
   NELECT =     238.0000    total number of electrons
   NUPDOWN=      -1.0000    fix difference up-down

 DOS related values:
   EMIN   =  10.00;   EMAX   =-10.00  energy-range for DOS
   EFERMI =   0.00
   ISMEAR =     0;   SIGMA  =   0.05  broadening in eV -4-tet -1-fermi 0-gaus

 Electronic relaxation 2 (details)
   IALGO  =     38    algorithm
   LDIAG  =      T    sub-space diagonalisation (order eigenvalues)
   LSUBROT=      F    optimize rotation matrix (better conditioning)
   TURBO    =      0    0=normal 1=particle mesh
   IRESTART =      0    0=no restart 2=restart with 2 vectors
   NREBOOT  =      0    no. of reboots
   NMIN     =      0    reboot dimension
   EREF     =   0.00    reference energy to select bands
   IMIX   =      4    mixing-type and parameters
     AMIX     =   0.40;   BMIX     =  1.00
     AMIX_MAG =   1.60;   BMIX_MAG =  1.00
     AMIN     =   0.10
     WC   =   100.;   INIMIX=   1;  MIXPRE=   1;  MAXMIX= -45

 Intra band minimization:
   WEIMIN = 0.0000     energy-eigenvalue tresh-hold
   EBREAK =  0.14E-08  absolut break condition
   DEPER  =   0.30     relativ break condition  

   TIME   =   0.40     timestep for ELM

  volume/ion in A,a.u.               =       9.19        62.00
  Fermi-wavevector in a.u.,A,eV,Ry     =   1.043607  1.972131 14.818310  1.089115
  Thomas-Fermi vector in A             =   2.178323
 
 Write flags
   LWAVE        =      T    write WAVECAR
   LDOWNSAMPLE  =      F    k-point downsampling of WAVECAR
   LCHARG       =      T    write CHGCAR
   LVTOT        =      F    write LOCPOT, total local potential
   LVHAR        =      T    write LOCPOT, Hartree potential only
   LELF         =      F    write electronic localiz. function (ELF)
   LORBIT       =     11    0 simple, 1 ext, 2 COOP (PROOUT), +10 PAW based schemes


 Dipole corrections
   LMONO  =      F    monopole corrections only (constant potential shift)
   LDIPOL =      F    correct potential (dipole corrections)
   IDIPOL =      0    1-x, 2-y, 3-z, 4-all directions 
   EPSILON=  1.0000000 bulk dielectric constant

 Exchange correlation treatment:
   GGA     =    --    GGA type
   LEXCH   =     8    internal setting for exchange type
   VOSKOWN=      0    Vosko Wilk Nusair interpolation
   LHFCALC =     F    Hartree Fock is set to
   LHFONE  =     F    Hartree Fock one center treatment
   AEXX    =    0.0000 exact exchange contribution

 Linear response parameters
   LEPSILON=     F    determine dielectric tensor
   LRPA    =     F    only Hartree local field effects (RPA)
   LNABLA  =     F    use nabla operator in PAW spheres
   LVEL    =     F    velocity operator in full k-point grid
   LINTERFAST=   F  fast interpolation
   KINTER  =     0    interpolate to denser k-point grid
   CSHIFT  =0.1000    complex shift for real part using Kramers Kronig
   OMEGAMAX=  -1.0    maximum frequency
   DEG_THRESHOLD= 0.2000000E-02 threshold for treating states as degnerate
   RTIME   =   -0.100 relaxation time in fs
  (WPLASMAI=    0.000 imaginary part of plasma frequency in eV, 0.658/RTIME)
   DFIELD  = 0.0000000 0.0000000 0.0000000 field for delta impulse in time
 
 Orbital magnetization related:
   ORBITALMAG=     F  switch on orbital magnetization
   LCHIMAG   =     F  perturbation theory with respect to B field
   DQ        =  0.001000  dq finite difference perturbation B field
   LLRAUG    =     F  two centre corrections for induced B field



--------------------------------------------------------------------------------------------------------


 Static calculation
 charge density and potential will be updated during run
 non-spin polarized calculation
 Variant of blocked Davidson
 Davidson routine will perform the subspace rotation
 perform sub-space diagonalisation
    after iterative eigenvector-optimisation
 modified Broyden-mixing scheme, WC =      100.0
 initial mixing is a Kerker type mixing with AMIX =  0.4000 and BMIX =      1.0000
 Hartree-type preconditioning will be used
 using additional bands           57
 real space projection scheme for non local part
 use partial core corrections
 calculate Harris-corrections to forces 
   (improved forces if not selfconsistent)
 use gradient corrections 
 use of overlap-Matrix (Vanderbilt PP)
 Gauss-broadening in eV      SIGMA  =   0.05


--------------------------------------------------------------------------------------------------------


  energy-cutoff  :      600.00
  volume of cell :      918.74
      direct lattice vectors                 reciprocal lattice vectors
     7.388260643  0.000000000  0.000000000     0.135349854  0.024895419  0.013095731
    -3.000738968 16.314229585  0.000000000     0.000000000  0.061296183  0.001300598
    -0.707738625 -0.161730347  7.622229424     0.000000000  0.000000000  0.131195211

  length of vectors
     7.388260643 16.587902860  7.656724630     0.138242045  0.061309980  0.131195211


 
 k-points in units of 2pi/SCALE and weight: pymatgen v2020.3.2 with grid density = 2
   0.00000000  0.00000000  0.00000000       0.111
   0.04511662  0.00829847  0.00436524       0.222
   0.00000000  0.02043206  0.00043353       0.222
   0.04511662  0.02873053  0.00479878       0.222
  -0.04511662  0.01213359 -0.00393171       0.222
 
 k-points in reciprocal lattice and weights: pymatgen v2020.3.2 with grid density = 2
   0.00000000  0.00000000  0.00000000       0.111
   0.33333333  0.00000000  0.00000000       0.222
   0.00000000  0.33333333  0.00000000       0.222
   0.33333333  0.33333333  0.00000000       0.222
  -0.33333333  0.33333333 -0.00000000       0.222
 
 position of ions in fractional coordinates (direct lattice) 
   0.75302000  0.32279500  0.70414900
   0.24698000  0.67720500  0.29585100
   0.04571100  0.28291900  0.67036000
   0.06010900  0.41566400  0.51390500
   0.25933800  0.41884800  0.66322200
   0.08115800  0.46968500  0.71704400
   0.01988500  0.27880600  0.99854300
   0.08022200  0.38712200  0.00863700
   0.24024300  0.32834500  0.94270800
   0.73097600  0.37333100  0.40393300
   0.49500400  0.37929100  0.78151600
   0.72314400  0.18755900  0.42801100
   0.91314100  0.26262000  0.37825300
   0.71170200  0.24093600  0.22886400
   0.42421700  0.29067100  0.28133600
   0.40398000  0.34642900  0.47420800
   0.40409100  0.23952500  0.48366800
   0.59785500  0.53029100  0.76519700
   0.64562700  0.48157000  0.57261300
   0.82573200  0.51738000  0.73826900
   0.83583300  0.44025600  0.03996200
   0.65885500  0.35539700  0.07067200
   0.60871400  0.45621600  0.06099200
   0.90096800  0.15044800  0.04821000
   0.27533000  0.13589300  0.74855700
   0.72467000  0.86410700  0.25144300
   0.09903200  0.84955200  0.95179000
   0.21207800  0.16001100  0.20270800
   0.95925500  0.12894900  0.60269200
   0.43898900  0.09511300  0.38158200
   0.04074500  0.87105100  0.39730800
   0.78792200  0.83998900  0.79729200
   0.64655600  0.04921500  0.52181800
   0.35344400  0.95078500  0.47818200
   0.56101100  0.90488700  0.61841800
   0.95428900  0.71708100  0.32964000
   0.26902400  0.62666900  0.59606700
   0.50499600  0.62070900  0.21848400
   0.93989100  0.58433600  0.48609500
   0.74066200  0.58115200  0.33677800
   0.91884200  0.53031500  0.28295600
   0.98011500  0.72119400  0.00145700
   0.91977800  0.61287800  0.99136300
   0.75975700  0.67165500  0.05729200
   0.27685600  0.81244100  0.57198900
   0.08685900  0.73738000  0.62174700
   0.28829800  0.75906400  0.77113600
   0.57578300  0.70932900  0.71866500
   0.59602000  0.65357100  0.52579200
   0.59590900  0.76047500  0.51633200
   0.40214500  0.46970900  0.23480300
   0.35437300  0.51843000  0.42738700
   0.17426800  0.48262000  0.26173100
   0.16416700  0.55974400  0.96003800
   0.34114500  0.64460300  0.92932800
   0.39128600  0.54378400  0.93900800
   0.01515500  0.33643400  0.74095000
   0.10822500  0.41409800  0.65366400
   0.09238300  0.33227200  0.93305300
   0.66029600  0.22648400  0.80584700
   0.67741400  0.31325400  0.45922800
   0.64409900  0.40489700  0.80606200
   0.60711200  0.15992500  0.87120700
   0.76138800  0.24786800  0.36913400
   0.46600800  0.29680100  0.42340500
   0.67993700  0.48758300  0.71521800
   0.68915100  0.41439600  0.00512800
   0.55189800  0.08141900  0.93896000
   0.68223700  0.04542300  0.04676600
   0.36933700  0.03759600  0.89294500
   0.86226000  0.08829100  0.09474200
   0.63066300  0.96240400  0.10705500
   0.31776300  0.95457700  0.95323400
   0.23650100  0.07311900  0.79204900
   0.99208600  0.05336200  0.19729900
   0.44810200  0.91858100  0.06104000
   0.76349900  0.92688100  0.20795100
   0.13774000  0.91170900  0.90525800
   0.05784100  0.03034800  0.74645700
   0.17443600  0.09727700  0.24671700
   0.94215900  0.96965200  0.25354300
   0.39288800  0.84007500  0.12879300
   0.00791400  0.94663800  0.80270100
   0.92198200  0.06588000  0.64476900
   0.30007300  0.06095000  0.34566700
   0.07801800  0.93412000  0.35523100
   0.33970400  0.77351600  0.19415300
   0.82556400  0.90272300  0.75328300
   0.74865800  0.02158400  0.60024000
   0.25134200  0.97841600  0.39976000
   0.69992700  0.93905000  0.65433300
   0.98484500  0.66356600  0.25905000
   0.32258600  0.68674600  0.54077200
   0.35590100  0.59510300  0.19393800
   0.89177500  0.58590200  0.34633600
   0.90761700  0.66772800  0.06694700
   0.23861200  0.75213200  0.63086600
   0.53399200  0.70319900  0.57659500
   0.32006300  0.51241700  0.28478200
   0.31084900  0.58560400  0.99487200
 
 position of ions in cartesian coordinates  (Angst):
   4.09653105  5.15226948  5.36718523
  -0.41674800 11.00022976  2.25504420
  -0.98568095  4.50718796  5.10963772
  -1.16690862  6.69812389  3.91710181
   0.18981540  6.72591931  5.05523024
  -1.31726536  7.54658115  5.46547388
  -1.39641592  4.38701039  7.61112384
  -0.57506376  6.31420032  0.06583320
   0.12250940  5.20423122  7.18553666
   3.99449335  6.02527942  3.07887000
   1.96595623  6.06144560  5.95689425
   4.47704084  2.99065822  3.26239804
   5.69076539  4.22326798  2.88313115
   4.37327794  3.89367096  1.74445391
   2.06288561  4.69657286  2.14440754
   1.60955122  5.57502842  3.61452217
   1.92446710  3.82944205  3.68662846
   2.28428423  8.52753354  5.83250709
   2.91973435  7.76383464  4.36458766
   4.02569942  8.32125560  5.62725569
   4.82597607  7.17597439  0.30459953
   3.75132153  5.78659844  0.53867820
   3.08518617  7.43294831  0.46489502
   6.17101116  2.44664619  0.36746768
   1.09664768  2.09592522  5.70567319
   2.58313537 14.05657402  1.91655623
  -2.49122811 13.70585304  7.25476174
   0.94327202  2.57767215  1.54508688
   6.27373527  2.00623000  4.59385670
   2.68789555  1.48998193  2.90850555
  -2.59395222 14.14626923  3.02837273
   2.73651103 13.57482708  6.07714254
   4.25993213  0.71851100  3.97741651
  -0.58014908 15.43398823  3.64481291
   0.99188750 14.66251731  4.71372388
   4.66546400 11.64531127  2.51259171
  -0.31471030 10.12721982  4.54335943
   1.71382682 10.09105364  1.66533517
   4.84669167  9.45437535  3.70512761
   3.48996765  9.42657993  2.56699918
   4.99704841  8.60591809  2.15675555
   5.07619897 11.76548885  0.01110559
   4.25484681  9.83829892  7.55639623
   3.55727365 10.94826802  0.43669277
  -0.79725779 13.16184102  4.35983139
  -2.01098234 11.92923125  4.73909828
  -0.69349489 12.25882827  5.87777551
   1.61689673 11.45592622  5.47782951
   2.07023183 10.57747082  4.00770725
   1.75531594 12.32305719  3.93560096
   1.39549882  7.62496569  1.78972234
   0.76004870  8.38866460  3.25764177
  -0.34591637  7.83124364  1.99497373
  -1.14619302  8.97652485  7.31762989
  -0.07153849 10.36590079  7.08355123
   0.59459688  8.71955093  7.15733441
  -1.42198046  5.36882742  5.64769089
  -0.90562876  6.64997254  4.98237697
  -0.97486950  5.26985871  7.11194403
   3.62849054  3.56458206  6.14235071
   3.73990432  5.03622657  3.50034117
   2.97329987  6.47521793  6.14398949
   3.38902167  2.46815256  6.64053963
   4.62029544  3.98407529  2.81362404
   2.25270617  4.77360222  3.22729005
   3.05425506  7.83886855  5.45155568
   3.84450370  6.75972213  0.03908679
   3.16871085  1.17642993  7.15696854
   4.87114411  0.73347777  0.35646118
   1.98397057  0.46893347  6.80623165
   6.03861081  1.42507699  0.72214526
   1.69581248 15.68356577  0.81599777
  -1.19136106 15.41902147  7.26576824
   0.96735633  1.06478179  6.03717919
   7.03002839  0.83865068  1.50385824
   0.51107220 14.97606931  0.46526088
   2.71242672 15.08771744  1.58505023
  -2.35882776 14.72742225  6.90008416
  -0.19201849  0.37437949  5.68966651
   0.82226460  1.54709769  1.88053358
   3.87180154 15.77811975  1.93256291
   0.29076138 13.68434668  0.98168979
  -3.35024534 15.31384855  6.11837118
   6.15782672  0.97050273  4.91457724
   1.78948061  0.93844745  2.63475318
  -2.47804367 15.18199651  2.70765218
   0.05129251 12.58791718  1.47987871
   2.85751845 14.60540155  5.74169585
   5.04169945  0.25504931  4.57516699
  -1.36191640 15.89744993  3.04706243
   1.89030244 15.21405179  4.98747625
   5.10176351 10.78367182  1.97453853
  -0.06012127 11.11627267  4.12188825
   0.70648318  9.67728131  1.47823993
   4.58541181  9.50252670  2.63985245
   4.65465255 10.88264053  0.51028539
  -0.94051239 12.16842395  4.80860539
   1.42707688 11.37889702  4.39493937
   0.62552799  8.31363069  2.17067374
  -0.16472065  9.39277711  7.58314263
 


--------------------------------------------------------------------------------------------------------


 k-point  1 :   0.0000 0.0000 0.0000  plane waves:   30697
 k-point  2 :   0.3333 0.0000 0.0000  plane waves:   30665
 k-point  3 :   0.0000 0.3333 0.0000  plane waves:   30671
 k-point  4 :   0.3333 0.3333 0.0000  plane waves:   30655
 k-point  5 :  -0.3333 0.3333-0.0000  plane waves:   30685

 maximum and minimum number of plane-waves per node :     30697    30655

 maximum number of plane-waves:     30697
 maximum index in each direction: 
   IXMAX=   15   IYMAX=   33   IZMAX=   15
   IXMIN=  -15   IYMIN=  -33   IZMIN=  -15


 serial   3D FFT for wavefunctions
 parallel 3D FFT for charge:
    minimum data exchange during FFTs selected (reduces bandwidth)


 total amount of memory used by VASP MPI-rank0   136637. kBytes
=======================================================================

   base      :      30000. kBytes
   nonlr-proj:      26722. kBytes
   fftplans  :      11823. kBytes
   grid      :      40203. kBytes
   one-center:        307. kBytes
   wavefun   :      27582. kBytes
 
     INWAV:  cpu time    0.0000: real time    0.0002
 Broyden mixing: mesh for mixing (old mesh)
   NGX = 29   NGY = 67   NGZ = 31
  (NGX  =120   NGY  =280   NGZ  =128)
  gives a total of  60233 points

 charge density for first step will be calculated from the start-wavefunctions


--------------------------------------------------------------------------------------------------------


 Maximum index for non-local projection operator         3734
 Maximum index for augmentation-charges         1288 (set IRDMAX)


--------------------------------------------------------------------------------------------------------


 initial charge from wavefunction
 First call to EWALD:  gamma=   0.182
 Maximum number of real-space cells 4x 2x 3
 Maximum number of reciprocal cells 2x 4x 2

    FEWALD:  cpu time    0.0060: real time    0.0060


--------------------------------------- Iteration      1(   1)  ---------------------------------------


    POTLOK:  cpu time    0.2565: real time    0.2592
    SETDIJ:  cpu time    0.5487: real time    0.5498
     EDDAV:  cpu time   16.8299: real time   16.8902
       DOS:  cpu time    0.0006: real time    0.0007
    --------------------------------------------
      LOOP:  cpu time   17.6356: real time   17.6998

 eigenvalue-minimisations  :  2784
 total energy-change (2. order) :-0.1399636E+05  (-0.2945178E+05)
 number of electron     238.0000000 magnetization 
 augmentation part       -0.6782061 magnetization 

 Free energy of the ion-electron system (eV)
  ---------------------------------------------------
  alpha Z        PSCENC =       272.52181810
  Ewald energy   TEWEN  =     -2292.98727568
  -Hartree energ DENC   =       -34.18632145
  -exchange      EXHF   =         0.00000000
  -V(xc)+E(xc)   XCENC  =       531.34839186
  PAW double counting   =    136725.20676293  -136684.53769893
  entropy T*S    EENTRO =        -0.00930212
  eigenvalues    EBANDS =    -19868.81692598
  atomic energy  EATOM  =      7355.09715575
  Solvation  Ediel_sol  =         0.00000000
  ---------------------------------------------------
  free energy    TOTEN  =    -13996.36339552 eV

  energy without entropy =   -13996.35409341  energy(sigma->0) =   -13996.35874447


--------------------------------------------------------------------------------------------------------




--------------------------------------- Iteration      1(   2)  ---------------------------------------


     EDDAV:  cpu time   15.3106: real time   15.3511
       DOS:  cpu time    0.0005: real time    0.0005
    --------------------------------------------
      LOOP:  cpu time   15.3111: real time   15.3516

 eigenvalue-minimisations  :  2496
 total energy-change (2. order) :-0.3572842E+04  (-0.3402769E+04)
 number of electron     238.0000000 magnetization 
 augmentation part       -0.6782061 magnetization 

 Free energy of the ion-electron system (eV)
  ---------------------------------------------------
  alpha Z        PSCENC =       272.52181810
  Ewald energy   TEWEN  =     -2292.98727568
  -Hartree energ DENC   =       -34.18632145
  -exchange      EXHF   =         0.00000000
  -V(xc)+E(xc)   XCENC  =       531.34839186
  PAW double counting   =    136725.20676293  -136684.53769893
  entropy T*S    EENTRO =        -0.00651675
  eigenvalues    EBANDS =    -23441.66177857
  atomic energy  EATOM  =      7355.09715575
  Solvation  Ediel_sol  =         0.00000000
  ---------------------------------------------------
  free energy    TOTEN  =    -17569.20546274 eV

  energy without entropy =   -17569.19894599  energy(sigma->0) =   -17569.20220437


--------------------------------------------------------------------------------------------------------




--------------------------------------- Iteration      1(   3)  ---------------------------------------


     EDDAV:  cpu time   17.3799: real time   17.4462
       DOS:  cpu time    0.0005: real time    0.0005
    --------------------------------------------
      LOOP:  cpu time   17.3804: real time   17.4467

 eigenvalue-minimisations  :  2912
 total energy-change (2. order) :-0.3351487E+03  (-0.3266341E+03)
 number of electron     238.0000000 magnetization 
 augmentation part       -0.6782061 magnetization 

 Free energy of the ion-electron system (eV)
  ---------------------------------------------------
  alpha Z        PSCENC =       272.52181810
  Ewald energy   TEWEN  =     -2292.98727568
  -Hartree energ DENC   =       -34.18632145
  -exchange      EXHF   =         0.00000000
  -V(xc)+E(xc)   XCENC  =       531.34839186
  PAW double counting   =    136725.20676293  -136684.53769893
  entropy T*S    EENTRO =        -0.02038069
  eigenvalues    EBANDS =    -23776.79660739
  atomic energy  EATOM  =      7355.09715575
  Solvation  Ediel_sol  =         0.00000000
  ---------------------------------------------------
  free energy    TOTEN  =    -17904.35415551 eV

  energy without entropy =   -17904.33377482  energy(sigma->0) =   -17904.34396516


--------------------------------------------------------------------------------------------------------




--------------------------------------- Iteration      1(   4)  ---------------------------------------


     EDDAV:  cpu time   17.5307: real time   17.6122
       DOS:  cpu time    0.0005: real time    0.0005
    --------------------------------------------
      LOOP:  cpu time   17.5312: real time   17.6127

 eigenvalue-minimisations  :  2944
 total energy-change (2. order) :-0.1275948E+02  (-0.1260241E+02)
 number of electron     238.0000000 magnetization 
 augmentation part       -0.6782061 magnetization 

 Free energy of the ion-electron system (eV)
  ---------------------------------------------------
  alpha Z        PSCENC =       272.52181810
  Ewald energy   TEWEN  =     -2292.98727568
  -Hartree energ DENC   =       -34.18632145
  -exchange      EXHF   =         0.00000000
  -V(xc)+E(xc)   XCENC  =       531.34839186
  PAW double counting   =    136725.20676293  -136684.53769893
  entropy T*S    EENTRO =        -0.02977338
  eigenvalues    EBANDS =    -23789.54669868
  atomic energy  EATOM  =      7355.09715575
  Solvation  Ediel_sol  =         0.00000000
  ---------------------------------------------------
  free energy    TOTEN  =    -17917.11363949 eV

  energy without entropy =   -17917.08386611  energy(sigma->0) =   -17917.09875280


--------------------------------------------------------------------------------------------------------




--------------------------------------- Iteration      1(   5)  ---------------------------------------


     EDDAV:  cpu time   17.2226: real time   17.2876
       DOS:  cpu time    0.0005: real time    0.0005
    CHARGE:  cpu time    0.7317: real time    0.7351
    MIXING:  cpu time    0.0064: real time    0.0066
    --------------------------------------------
      LOOP:  cpu time   17.9613: real time   18.0299

 eigenvalue-minimisations  :  2880
 total energy-change (2. order) :-0.4830703E+00  (-0.4804527E+00)
 number of electron     237.9999995 magnetization 
 augmentation part       11.0516627 magnetization 

 Broyden mixing:
  rms(total) = 0.39925E+02    rms(broyden)= 0.39920E+02
  rms(prec ) = 0.65951E+02
  weight for this iteration     100.00

 Free energy of the ion-electron system (eV)
  ---------------------------------------------------
  alpha Z        PSCENC =       272.52181810
  Ewald energy   TEWEN  =     -2292.98727568
  -Hartree energ DENC   =       -34.18632145
  -exchange      EXHF   =         0.00000000
  -V(xc)+E(xc)   XCENC  =       531.34839186
  PAW double counting   =    136725.20676293  -136684.53769893
  entropy T*S    EENTRO =        -0.02919923
  eigenvalues    EBANDS =    -23790.03034311
  atomic energy  EATOM  =      7355.09715575
  Solvation  Ediel_sol  =         0.00000000
  ---------------------------------------------------
  free energy    TOTEN  =    -17917.59670977 eV

  energy without entropy =   -17917.56751054  energy(sigma->0) =   -17917.58211016


--------------------------------------------------------------------------------------------------------




--------------------------------------- Iteration      1(   6)  ---------------------------------------


    POTLOK:  cpu time    0.2542: real time    0.2557
    SETDIJ:  cpu time    0.5455: real time    0.5469
     EDDAV:  cpu time   18.5036: real time   18.5809
       DOS:  cpu time    0.0005: real time    0.0005
    CHARGE:  cpu time    0.7281: real time    0.7325
    MIXING:  cpu time    0.0064: real time    0.0065
    --------------------------------------------
      LOOP:  cpu time   20.0384: real time   20.1230

 eigenvalue-minimisations  :  3136
 total energy-change (2. order) : 0.1567679E+05  (-0.3993456E+04)
 number of electron     237.9999999 magnetization 
 augmentation part        7.3968729 magnetization 

 Broyden mixing:
  rms(total) = 0.22302E+02    rms(broyden)= 0.22298E+02
  rms(prec ) = 0.29784E+02
  weight for this iteration     100.00

 eigenvalues of (default mixing * dielectric matrix)
  average eigenvalue GAMMA=   0.6852
  0.6852

 Free energy of the ion-electron system (eV)
  ---------------------------------------------------
  alpha Z        PSCENC =       272.52181810
  Ewald energy   TEWEN  =     -2292.98727568
  -Hartree energ DENC   =     -2219.81534325
  -exchange      EXHF   =         0.00000000
  -V(xc)+E(xc)   XCENC  =       604.76203349
  PAW double counting   =    140141.11807091  -140142.64873320
  entropy T*S    EENTRO =        -0.01076741
  eigenvalues    EBANDS =     -5958.84821815
  atomic energy  EATOM  =      7355.09715575
  Solvation  Ediel_sol  =         0.00000000
  ---------------------------------------------------
  free energy    TOTEN  =     -2240.81125944 eV

  energy without entropy =    -2240.80049203  energy(sigma->0) =    -2240.80587574


--------------------------------------------------------------------------------------------------------




--------------------------------------- Iteration      1(   7)  ---------------------------------------


    POTLOK:  cpu time    0.2532: real time    0.2556
    SETDIJ:  cpu time    0.5462: real time    0.5466
     EDDAV:  cpu time   18.1761: real time   18.2704
       DOS:  cpu time    0.0005: real time    0.0005
    CHARGE:  cpu time    0.7321: real time    0.7339
    MIXING:  cpu time    0.0065: real time    0.0065
    --------------------------------------------
      LOOP:  cpu time   19.7147: real time   19.8136

 eigenvalue-minimisations  :  3072
 total energy-change (2. order) :-0.8966252E+03  (-0.3525818E+04)
 number of electron     238.0000001 magnetization 
 augmentation part        4.2287319 magnetization 

 Broyden mixing:
  rms(total) = 0.20289E+02    rms(broyden)= 0.20288E+02
  rms(prec ) = 0.33226E+02
  weight for this iteration     100.00

 eigenvalues of (default mixing * dielectric matrix)
  average eigenvalue GAMMA=   0.6461
  0.6461  0.6461

 Free energy of the ion-electron system (eV)
  ---------------------------------------------------
  alpha Z        PSCENC =       272.52181810
  Ewald energy   TEWEN  =     -2292.98727568
  -Hartree energ DENC   =     -3243.30264699
  -exchange      EXHF   =         0.00000000
  -V(xc)+E(xc)   XCENC  =       634.13851433
  PAW double counting   =    128120.03229469  -128128.82626644
  entropy T*S    EENTRO =        -0.01287704
  eigenvalues    EBANDS =     -5854.09716000
  atomic energy  EATOM  =      7355.09715575
  Solvation  Ediel_sol  =         0.00000000
  ---------------------------------------------------
  free energy    TOTEN  =     -3137.43644328 eV

  energy without entropy =    -3137.42356624  energy(sigma->0) =    -3137.43000476


--------------------------------------------------------------------------------------------------------




--------------------------------------- Iteration      1(   8)  ---------------------------------------


    POTLOK:  cpu time    0.2519: real time    0.2539
    SETDIJ:  cpu time    0.5458: real time    0.5469
     EDDAV:  cpu time   16.6019: real time   16.6754
       DOS:  cpu time    0.0006: real time    0.0006
    CHARGE:  cpu time    0.7294: real time    0.7341
    MIXING:  cpu time    0.0067: real time    0.0067
    --------------------------------------------
      LOOP:  cpu time   18.1362: real time   18.2176

 eigenvalue-minimisations  :  2752
 total energy-change (2. order) : 0.1586754E+04  (-0.8235807E+03)
 number of electron     238.0000002 magnetization 
 augmentation part        6.3532547 magnetization 

 Broyden mixing:
  rms(total) = 0.15168E+02    rms(broyden)= 0.15168E+02
  rms(prec ) = 0.17149E+02
  weight for this iteration     100.00

 eigenvalues of (default mixing * dielectric matrix)
  average eigenvalue GAMMA=   0.4738
  0.6106  0.6106  0.2002

 Free energy of the ion-electron system (eV)
  ---------------------------------------------------
  alpha Z        PSCENC =       272.52181810
  Ewald energy   TEWEN  =     -2292.98727568
  -Hartree energ DENC   =     -2571.95273851
  -exchange      EXHF   =         0.00000000
  -V(xc)+E(xc)   XCENC  =       622.96018598
  PAW double counting   =    104538.57586836  -104547.21872440
  entropy T*S    EENTRO =        -0.02242084
  eigenvalues    EBANDS =     -4927.65676234
  atomic energy  EATOM  =      7355.09715575
  Solvation  Ediel_sol  =         0.00000000
  ---------------------------------------------------
  free energy    TOTEN  =     -1550.68289359 eV

  energy without entropy =    -1550.66047275  energy(sigma->0) =    -1550.67168317


--------------------------------------------------------------------------------------------------------




--------------------------------------- Iteration      1(   9)  ---------------------------------------


    POTLOK:  cpu time    0.2544: real time    0.2553
    SETDIJ:  cpu time    0.5464: real time    0.5469
     EDDAV:  cpu time   13.9448: real time   14.0025
       DOS:  cpu time    0.0006: real time    0.0006
    CHARGE:  cpu time    0.7315: real time    0.7352
    MIXING:  cpu time    0.0068: real time    0.0068
    --------------------------------------------
      LOOP:  cpu time   15.4846: real time   15.5472

 eigenvalue-minimisations  :  2224
 total energy-change (2. order) : 0.2708398E+03  (-0.1334117E+03)
 number of electron     238.0000000 magnetization 
 augmentation part        6.4728457 magnetization 

 Broyden mixing:
  rms(total) = 0.13058E+02    rms(broyden)= 0.13058E+02
  rms(prec ) = 0.15345E+02
  weight for this iteration     100.00

 eigenvalues of (default mixing * dielectric matrix)
  average eigenvalue GAMMA=   0.7381
  0.7905  0.7905  0.6858  0.6858

 Free energy of the ion-electron system (eV)
  ---------------------------------------------------
  alpha Z        PSCENC =       272.52181810
  Ewald energy   TEWEN  =     -2292.98727568
  -Hartree energ DENC   =     -2882.53278583
  -exchange      EXHF   =         0.00000000
  -V(xc)+E(xc)   XCENC  =       639.03524478
  PAW double counting   =     86374.68523865   -86383.02147548
  entropy T*S    EENTRO =        -0.04967153
  eigenvalues    EBANDS =     -4362.59135658
  atomic energy  EATOM  =      7355.09715575
  Solvation  Ediel_sol  =         0.00000000
  ---------------------------------------------------
  free energy    TOTEN  =     -1279.84310782 eV

  energy without entropy =    -1279.79343629  energy(sigma->0) =    -1279.81827205


--------------------------------------------------------------------------------------------------------




--------------------------------------- Iteration      1(  10)  ---------------------------------------


    POTLOK:  cpu time    0.2540: real time    0.2546
    SETDIJ:  cpu time    0.5447: real time    0.5469
     EDDAV:  cpu time   14.0153: real time   14.0769
       DOS:  cpu time    0.0006: real time    0.0006
    CHARGE:  cpu time    0.7312: real time    0.7326
    MIXING:  cpu time    0.0068: real time    0.0070
    --------------------------------------------
      LOOP:  cpu time   15.5527: real time   15.6186

 eigenvalue-minimisations  :  2240
 total energy-change (2. order) : 0.4284647E+03  (-0.8982834E+02)
 number of electron     237.9999999 magnetization 
 augmentation part        5.8344850 magnetization 

 Broyden mixing:
  rms(total) = 0.80495E+01    rms(broyden)= 0.80493E+01
  rms(prec ) = 0.90629E+01
  weight for this iteration     100.00

 eigenvalues of (default mixing * dielectric matrix)
  average eigenvalue GAMMA=   1.0051
  1.5289  1.5289  0.6540  0.6540  0.6595

 Free energy of the ion-electron system (eV)
  ---------------------------------------------------
  alpha Z        PSCENC =       272.52181810
  Ewald energy   TEWEN  =     -2292.98727568
  -Hartree energ DENC   =     -3733.97235633
  -exchange      EXHF   =         0.00000000
  -V(xc)+E(xc)   XCENC  =       676.11423781
  PAW double counting   =     51641.18835921   -51649.73569123
  entropy T*S    EENTRO =        -0.04092451
  eigenvalues    EBANDS =     -3119.56375024
  atomic energy  EATOM  =      7355.09715575
  Solvation  Ediel_sol  =         0.00000000
  ---------------------------------------------------
  free energy    TOTEN  =      -851.37842713 eV

  energy without entropy =     -851.33750262  energy(sigma->0) =     -851.35796487


--------------------------------------------------------------------------------------------------------




--------------------------------------- Iteration      1(  11)  ---------------------------------------


    POTLOK:  cpu time    0.2504: real time    0.2534
    SETDIJ:  cpu time    0.5471: real time    0.5481
     EDDAV:  cpu time   13.9102: real time   13.9769
       DOS:  cpu time    0.0005: real time    0.0005
    CHARGE:  cpu time    0.7483: real time    0.7515
    MIXING:  cpu time    0.0071: real time    0.0071
    --------------------------------------------
      LOOP:  cpu time   15.4636: real time   15.5376

 eigenvalue-minimisations  :  2240
 total energy-change (2. order) : 0.2120932E+03  (-0.5007212E+02)
 number of electron     237.9999998 magnetization 
 augmentation part        4.9609642 magnetization 

 Broyden mixing:
  rms(total) = 0.31913E+01    rms(broyden)= 0.31911E+01
  rms(prec ) = 0.36541E+01
  weight for this iteration     100.00

 eigenvalues of (default mixing * dielectric matrix)
  average eigenvalue GAMMA=   1.1075
  1.8630  1.8630  0.8182  0.8182  0.6414  0.6414

 Free energy of the ion-electron system (eV)
  ---------------------------------------------------
  alpha Z        PSCENC =       272.52181810
  Ewald energy   TEWEN  =     -2292.98727568
  -Hartree energ DENC   =     -4728.10216915
  -exchange      EXHF   =         0.00000000
  -V(xc)+E(xc)   XCENC  =       722.85778773
  PAW double counting   =     24856.26116375   -24861.23892634
  entropy T*S    EENTRO =        -0.00000000
  eigenvalues    EBANDS =     -1963.69479541
  atomic energy  EATOM  =      7355.09715575
  Solvation  Ediel_sol  =         0.00000000
  ---------------------------------------------------
  free energy    TOTEN  =      -639.28524126 eV

  energy without entropy =     -639.28524126  energy(sigma->0) =     -639.28524126


--------------------------------------------------------------------------------------------------------




--------------------------------------- Iteration      1(  12)  ---------------------------------------


    POTLOK:  cpu time    0.2527: real time    0.2545
    SETDIJ:  cpu time    0.5508: real time    0.5523
     EDDAV:  cpu time   13.9674: real time   14.0300
       DOS:  cpu time    0.0006: real time    0.0006
    CHARGE:  cpu time    0.7514: real time    0.7535
    MIXING:  cpu time    0.0073: real time    0.0073
    --------------------------------------------
      LOOP:  cpu time   15.5301: real time   15.5981

 eigenvalue-minimisations  :  2256
 total energy-change (2. order) : 0.2272665E+02  (-0.6263130E+01)
 number of electron     237.9999998 magnetization 
 augmentation part        5.0842656 magnetization 

 Broyden mixing:
  rms(total) = 0.18166E+01    rms(broyden)= 0.18166E+01
  rms(prec ) = 0.21214E+01
  weight for this iteration     100.00

 eigenvalues of (default mixing * dielectric matrix)
  average eigenvalue GAMMA=   1.1737
  2.0442  2.0442  1.0428  1.0428  0.6472  0.6472  0.7476

 Free energy of the ion-electron system (eV)
  ---------------------------------------------------
  alpha Z        PSCENC =       272.52181810
  Ewald energy   TEWEN  =     -2292.98727568
  -Hartree energ DENC   =     -4732.48696224
  -exchange      EXHF   =         0.00000000
  -V(xc)+E(xc)   XCENC  =       722.19815518
  PAW double counting   =     23636.84040283   -23637.11219109
  entropy T*S    EENTRO =        -0.00000000
  eigenvalues    EBANDS =     -1940.62968940
  atomic energy  EATOM  =      7355.09715575
  Solvation  Ediel_sol  =         0.00000000
  ---------------------------------------------------
  free energy    TOTEN  =      -616.55858656 eV

  energy without entropy =     -616.55858656  energy(sigma->0) =     -616.55858656


--------------------------------------------------------------------------------------------------------




--------------------------------------- Iteration      1(  13)  ---------------------------------------


    POTLOK:  cpu time    0.2532: real time    0.2537
    SETDIJ:  cpu time    0.5462: real time    0.5481
     EDDAV:  cpu time   13.4887: real time   13.5367
       DOS:  cpu time    0.0006: real time    0.0006
    CHARGE:  cpu time    0.7493: real time    0.7528
    MIXING:  cpu time    0.0074: real time    0.0074
    --------------------------------------------
      LOOP:  cpu time   15.0453: real time   15.0994

 eigenvalue-minimisations  :  2160
 total energy-change (2. order) : 0.1144666E+02  (-0.3717823E+01)
 number of electron     237.9999998 magnetization 
 augmentation part        4.9013425 magnetization 

 Broyden mixing:
  rms(total) = 0.72126E+00    rms(broyden)= 0.72122E+00
  rms(prec ) = 0.81110E+00
  weight for this iteration     100.00

 eigenvalues of (default mixing * dielectric matrix)
  average eigenvalue GAMMA=   1.1744
  2.0156  2.0156  1.2341  1.2341  0.6464  0.6464  0.8013  0.8013

 Free energy of the ion-electron system (eV)
  ---------------------------------------------------
  alpha Z        PSCENC =       272.52181810
  Ewald energy   TEWEN  =     -2292.98727568
  -Hartree energ DENC   =     -5010.21350495
  -exchange      EXHF   =         0.00000000
  -V(xc)+E(xc)   XCENC  =       737.65392276
  PAW double counting   =     19797.29250967   -19794.44231080
  entropy T*S    EENTRO =        -0.00000000
  eigenvalues    EBANDS =     -1670.03424139
  atomic energy  EATOM  =      7355.09715575
  Solvation  Ediel_sol  =         0.00000000
  ---------------------------------------------------
  free energy    TOTEN  =      -605.11192655 eV

  energy without entropy =     -605.11192655  energy(sigma->0) =     -605.11192655


--------------------------------------------------------------------------------------------------------




--------------------------------------- Iteration      1(  14)  ---------------------------------------


    POTLOK:  cpu time    0.2531: real time    0.2538
    SETDIJ:  cpu time    0.5474: real time    0.5480
     EDDAV:  cpu time   13.2570: real time   13.3041
       DOS:  cpu time    0.0006: real time    0.0006
    CHARGE:  cpu time    0.7494: real time    0.7539
    MIXING:  cpu time    0.0076: real time    0.0077
    --------------------------------------------
      LOOP:  cpu time   14.8153: real time   14.8681

 eigenvalue-minimisations  :  2112
 total energy-change (2. order) : 0.1792603E+00  (-0.3063469E+00)
 number of electron     237.9999998 magnetization 
 augmentation part        4.8987529 magnetization 

 Broyden mixing:
  rms(total) = 0.41457E+00    rms(broyden)= 0.41456E+00
  rms(prec ) = 0.48392E+00
  weight for this iteration     100.00

 eigenvalues of (default mixing * dielectric matrix)
  average eigenvalue GAMMA=   1.2986
  2.9126  2.1552  1.3132  1.3132  0.6462  0.6462  0.9591  0.9591  0.7827

 Free energy of the ion-electron system (eV)
  ---------------------------------------------------
  alpha Z        PSCENC =       272.52181810
  Ewald energy   TEWEN  =     -2292.98727568
  -Hartree energ DENC   =     -4997.99448051
  -exchange      EXHF   =         0.00000000
  -V(xc)+E(xc)   XCENC  =       736.53922117
  PAW double counting   =     20054.82046755   -20051.74286652
  entropy T*S    EENTRO =        -0.00000000
  eigenvalues    EBANDS =     -1681.18670612
  atomic energy  EATOM  =      7355.09715575
  Solvation  Ediel_sol  =         0.00000000
  ---------------------------------------------------
  free energy    TOTEN  =      -604.93266626 eV

  energy without entropy =     -604.93266626  energy(sigma->0) =     -604.93266626


--------------------------------------------------------------------------------------------------------




--------------------------------------- Iteration      1(  15)  ---------------------------------------


    POTLOK:  cpu time    0.2536: real time    0.2542
    SETDIJ:  cpu time    0.5478: real time    0.5481
     EDDAV:  cpu time   13.4905: real time   13.5744
       DOS:  cpu time    0.0006: real time    0.0006
    CHARGE:  cpu time    0.7503: real time    0.7535
    MIXING:  cpu time    0.0077: real time    0.0077
    --------------------------------------------
      LOOP:  cpu time   15.0505: real time   15.1384

 eigenvalue-minimisations  :  2160
 total energy-change (2. order) : 0.5523450E-01  (-0.1442284E+00)
 number of electron     237.9999998 magnetization 
 augmentation part        4.9253254 magnetization 

 Broyden mixing:
  rms(total) = 0.13765E+00    rms(broyden)= 0.13764E+00
  rms(prec ) = 0.16708E+00
  weight for this iteration     100.00

 eigenvalues of (default mixing * dielectric matrix)
  average eigenvalue GAMMA=   1.2711
  3.0160  1.7900  1.7900  0.6462  0.6462  1.1607  1.1607  0.8141  0.8437  0.8437

 Free energy of the ion-electron system (eV)
  ---------------------------------------------------
  alpha Z        PSCENC =       272.52181810
  Ewald energy   TEWEN  =     -2292.98727568
  -Hartree energ DENC   =     -4998.07271843
  -exchange      EXHF   =         0.00000000
  -V(xc)+E(xc)   XCENC  =       736.87971778
  PAW double counting   =     19958.25370147   -19954.43349379
  entropy T*S    EENTRO =        -0.00000000
  eigenvalues    EBANDS =     -1682.13633695
  atomic energy  EATOM  =      7355.09715575
  Solvation  Ediel_sol  =         0.00000000
  ---------------------------------------------------
  free energy    TOTEN  =      -604.87743175 eV

  energy without entropy =     -604.87743175  energy(sigma->0) =     -604.87743175


--------------------------------------------------------------------------------------------------------




--------------------------------------- Iteration      1(  16)  ---------------------------------------


    POTLOK:  cpu time    0.2539: real time    0.2544
    SETDIJ:  cpu time    0.5463: real time    0.5482
     EDDAV:  cpu time   13.4162: real time   13.4770
       DOS:  cpu time    0.0006: real time    0.0006
    CHARGE:  cpu time    0.7558: real time    0.7605
    MIXING:  cpu time    0.0080: real time    0.0080
    --------------------------------------------
      LOOP:  cpu time   14.9808: real time   15.0487

 eigenvalue-minimisations  :  2144
 total energy-change (2. order) :-0.3034023E-02  (-0.5160051E-01)
 number of electron     237.9999998 magnetization 
 augmentation part        4.9092256 magnetization 

 Broyden mixing:
  rms(total) = 0.93343E-01    rms(broyden)= 0.93338E-01
  rms(prec ) = 0.11614E+00
  weight for this iteration     100.00

 eigenvalues of (default mixing * dielectric matrix)
  average eigenvalue GAMMA=   1.2821
  3.1519  1.9480  1.9480  1.2243  1.2243  0.6462  0.6462  0.8050  0.8050  0.8520
  0.8520

 Free energy of the ion-electron system (eV)
  ---------------------------------------------------
  alpha Z        PSCENC =       272.52181810
  Ewald energy   TEWEN  =     -2292.98727568
  -Hartree energ DENC   =     -5013.80136773
  -exchange      EXHF   =         0.00000000
  -V(xc)+E(xc)   XCENC  =       737.61919598
  PAW double counting   =     19768.52238601   -19764.88878275
  entropy T*S    EENTRO =        -0.00000000
  eigenvalues    EBANDS =     -1666.96359546
  atomic energy  EATOM  =      7355.09715575
  Solvation  Ediel_sol  =         0.00000000
  ---------------------------------------------------
  free energy    TOTEN  =      -604.88046578 eV

  energy without entropy =     -604.88046578  energy(sigma->0) =     -604.88046578


--------------------------------------------------------------------------------------------------------




--------------------------------------- Iteration      1(  17)  ---------------------------------------


    POTLOK:  cpu time    0.2511: real time    0.2538
    SETDIJ:  cpu time    0.5479: real time    0.5484
     EDDAV:  cpu time   13.5890: real time   13.6349
       DOS:  cpu time    0.0006: real time    0.0006
    CHARGE:  cpu time    0.7519: real time    0.7584
    MIXING:  cpu time    0.0080: real time    0.0080
    --------------------------------------------
      LOOP:  cpu time   15.1484: real time   15.2041

 eigenvalue-minimisations  :  2048
 total energy-change (2. order) :-0.1221816E-01  (-0.5232599E-02)
 number of electron     237.9999998 magnetization 
 augmentation part        4.9100609 magnetization 

 Broyden mixing:
  rms(total) = 0.40004E-01    rms(broyden)= 0.40003E-01
  rms(prec ) = 0.57166E-01
  weight for this iteration     100.00

 eigenvalues of (default mixing * dielectric matrix)
  average eigenvalue GAMMA=   1.3393
  3.1205  2.6893  1.6607  1.6607  0.6462  0.6462  1.1177  1.1177  0.8841  0.8350
  0.8468  0.8468

 Free energy of the ion-electron system (eV)
  ---------------------------------------------------
  alpha Z        PSCENC =       272.52181810
  Ewald energy   TEWEN  =     -2292.98727568
  -Hartree energ DENC   =     -5010.33169604
  -exchange      EXHF   =         0.00000000
  -V(xc)+E(xc)   XCENC  =       737.35387406
  PAW double counting   =     19737.30514917   -19733.76742737
  entropy T*S    EENTRO =        -0.00000000
  eigenvalues    EBANDS =     -1670.08428192
  atomic energy  EATOM  =      7355.09715575
  Solvation  Ediel_sol  =         0.00000000
  ---------------------------------------------------
  free energy    TOTEN  =      -604.89268394 eV

  energy without entropy =     -604.89268394  energy(sigma->0) =     -604.89268394


--------------------------------------------------------------------------------------------------------




--------------------------------------- Iteration      1(  18)  ---------------------------------------


    POTLOK:  cpu time    0.2537: real time    0.2542
    SETDIJ:  cpu time    0.5475: real time    0.5481
     EDDAV:  cpu time   13.4151: real time   13.4844
       DOS:  cpu time    0.0006: real time    0.0006
    CHARGE:  cpu time    0.7543: real time    0.7591
    MIXING:  cpu time    0.0081: real time    0.0081
    --------------------------------------------
      LOOP:  cpu time   14.9792: real time   15.0546

 eigenvalue-minimisations  :  2144
 total energy-change (2. order) :-0.1334600E-02  (-0.2497138E-02)
 number of electron     237.9999998 magnetization 
 augmentation part        4.9118781 magnetization 

 Broyden mixing:
  rms(total) = 0.30250E-01    rms(broyden)= 0.30250E-01
  rms(prec ) = 0.38607E-01
  weight for this iteration     100.00

 eigenvalues of (default mixing * dielectric matrix)
  average eigenvalue GAMMA=   1.3853
  3.2221  2.6370  1.9062  1.9062  0.6462  0.6462  1.2260  1.2260  1.0019  1.0019
  0.8380  0.8756  0.8756

 Free energy of the ion-electron system (eV)
  ---------------------------------------------------
  alpha Z        PSCENC =       272.52181810
  Ewald energy   TEWEN  =     -2292.98727568
  -Hartree energ DENC   =     -5007.23420878
  -exchange      EXHF   =         0.00000000
  -V(xc)+E(xc)   XCENC  =       737.17960028
  PAW double counting   =     19726.24094393   -19722.74103188
  entropy T*S    EENTRO =        -0.00000000
  eigenvalues    EBANDS =     -1672.97102026
  atomic energy  EATOM  =      7355.09715575
  Solvation  Ediel_sol  =         0.00000000
  ---------------------------------------------------
  free energy    TOTEN  =      -604.89401854 eV

  energy without entropy =     -604.89401854  energy(sigma->0) =     -604.89401854


--------------------------------------------------------------------------------------------------------




--------------------------------------- Iteration      1(  19)  ---------------------------------------


    POTLOK:  cpu time    0.2533: real time    0.2539
    SETDIJ:  cpu time    0.5437: real time    0.5482
     EDDAV:  cpu time   13.8901: real time   13.9538
       DOS:  cpu time    0.0006: real time    0.0006
    CHARGE:  cpu time    0.7583: real time    0.7596
    MIXING:  cpu time    0.0088: real time    0.0090
    --------------------------------------------
      LOOP:  cpu time   15.4548: real time   15.5250

 eigenvalue-minimisations  :  2240
 total energy-change (2. order) : 0.2861440E-02  (-0.1523385E-02)
 number of electron     237.9999998 magnetization 
 augmentation part        4.9102573 magnetization 

 Broyden mixing:
  rms(total) = 0.10545E-01    rms(broyden)= 0.10544E-01
  rms(prec ) = 0.14824E-01
  weight for this iteration     100.00

 eigenvalues of (default mixing * dielectric matrix)
  average eigenvalue GAMMA=   1.4073
  3.2319  3.2319  1.9414  1.9414  1.2903  1.2903  0.6462  0.6462  1.0462  1.0462
  0.8286  0.8286  0.8669  0.8669

 Free energy of the ion-electron system (eV)
  ---------------------------------------------------
  alpha Z        PSCENC =       272.52181810
  Ewald energy   TEWEN  =     -2292.98727568
  -Hartree energ DENC   =     -5008.93354233
  -exchange      EXHF   =         0.00000000
  -V(xc)+E(xc)   XCENC  =       737.28723820
  PAW double counting   =     19683.07192913   -19679.59836727
  entropy T*S    EENTRO =        -0.00000000
  eigenvalues    EBANDS =     -1671.35011300
  atomic energy  EATOM  =      7355.09715575
  Solvation  Ediel_sol  =         0.00000000
  ---------------------------------------------------
  free energy    TOTEN  =      -604.89115710 eV

  energy without entropy =     -604.89115710  energy(sigma->0) =     -604.89115710


--------------------------------------------------------------------------------------------------------




--------------------------------------- Iteration      1(  20)  ---------------------------------------


    POTLOK:  cpu time    0.2527: real time    0.2535
    SETDIJ:  cpu time    0.5478: real time    0.5482
     EDDAV:  cpu time   13.8841: real time   13.9452
       DOS:  cpu time    0.0006: real time    0.0006
    CHARGE:  cpu time    0.7585: real time    0.7601
    MIXING:  cpu time    0.0086: real time    0.0087
    --------------------------------------------
      LOOP:  cpu time   15.4523: real time   15.5163

 eigenvalue-minimisations  :  2240
 total energy-change (2. order) : 0.7393035E-04  (-0.6579389E-03)
 number of electron     237.9999998 magnetization 
 augmentation part        4.9109344 magnetization 

 Broyden mixing:
  rms(total) = 0.99921E-02    rms(broyden)= 0.99916E-02
  rms(prec ) = 0.11940E-01
  weight for this iteration     100.00

 eigenvalues of (default mixing * dielectric matrix)
  average eigenvalue GAMMA=   1.3750
  3.2589  3.2589  2.0104  2.0104  1.3112  1.3112  0.6462  0.6462  1.0682  1.0682
  0.8729  0.8729  0.7932  0.7932  0.7034

 Free energy of the ion-electron system (eV)
  ---------------------------------------------------
  alpha Z        PSCENC =       272.52181810
  Ewald energy   TEWEN  =     -2292.98727568
  -Hartree energ DENC   =     -5008.08111829
  -exchange      EXHF   =         0.00000000
  -V(xc)+E(xc)   XCENC  =       737.25084411
  PAW double counting   =     19690.00368695   -19686.53162873
  entropy T*S    EENTRO =        -0.00000000
  eigenvalues    EBANDS =     -1672.16456537
  atomic energy  EATOM  =      7355.09715575
  Solvation  Ediel_sol  =         0.00000000
  ---------------------------------------------------
  free energy    TOTEN  =      -604.89108317 eV

  energy without entropy =     -604.89108317  energy(sigma->0) =     -604.89108317


--------------------------------------------------------------------------------------------------------




--------------------------------------- Iteration      1(  21)  ---------------------------------------


    POTLOK:  cpu time    0.2531: real time    0.2537
    SETDIJ:  cpu time    0.5483: real time    0.5487
     EDDAV:  cpu time   13.8323: real time   13.8825
       DOS:  cpu time    0.0006: real time    0.0006
    CHARGE:  cpu time    0.7616: real time    0.7632
    MIXING:  cpu time    0.0088: real time    0.0088
    --------------------------------------------
      LOOP:  cpu time   15.4047: real time   15.4575

 eigenvalue-minimisations  :  2224
 total energy-change (2. order) : 0.1054886E-03  (-0.8991604E-04)
 number of electron     237.9999998 magnetization 
 augmentation part        4.9116588 magnetization 

 Broyden mixing:
  rms(total) = 0.82585E-02    rms(broyden)= 0.82584E-02
  rms(prec ) = 0.98273E-02
  weight for this iteration     100.00

 eigenvalues of (default mixing * dielectric matrix)
  average eigenvalue GAMMA=   1.4480
  3.5922  3.5922  2.0755  2.0755  1.4266  1.4266  0.6462  0.6462  1.1710  1.1710
  0.8175  0.8175  0.9486  0.9486  0.9064  0.9064

 Free energy of the ion-electron system (eV)
  ---------------------------------------------------
  alpha Z        PSCENC =       272.52181810
  Ewald energy   TEWEN  =     -2292.98727568
  -Hartree energ DENC   =     -5007.52691856
  -exchange      EXHF   =         0.00000000
  -V(xc)+E(xc)   XCENC  =       737.22891163
  PAW double counting   =     19699.97125356   -19696.49525099
  entropy T*S    EENTRO =        -0.00000000
  eigenvalues    EBANDS =     -1672.70067148
  atomic energy  EATOM  =      7355.09715575
  Solvation  Ediel_sol  =         0.00000000
  ---------------------------------------------------
  free energy    TOTEN  =      -604.89097768 eV

  energy without entropy =     -604.89097768  energy(sigma->0) =     -604.89097768


--------------------------------------------------------------------------------------------------------




--------------------------------------- Iteration      1(  22)  ---------------------------------------


    POTLOK:  cpu time    0.2542: real time    0.2549
    SETDIJ:  cpu time    0.5466: real time    0.5482
     EDDAV:  cpu time   14.3107: real time   14.3680
       DOS:  cpu time    0.0006: real time    0.0006
    CHARGE:  cpu time    0.7611: real time    0.7632
    MIXING:  cpu time    0.0093: real time    0.0093
    --------------------------------------------
      LOOP:  cpu time   15.8823: real time   15.9441

 eigenvalue-minimisations  :  2320
 total energy-change (2. order) : 0.2877637E-03  (-0.5378463E-04)
 number of electron     237.9999998 magnetization 
 augmentation part        4.9115891 magnetization 

 Broyden mixing:
  rms(total) = 0.34211E-02    rms(broyden)= 0.34210E-02
  rms(prec ) = 0.38928E-02
  weight for this iteration     100.00

 eigenvalues of (default mixing * dielectric matrix)
  average eigenvalue GAMMA=   1.4517
  3.8871  3.2355  2.6337  1.8673  1.8673  1.3187  1.3187  0.6462  0.6462  1.0718
  1.0718  0.9454  0.8229  0.8512  0.8512  0.8218  0.8218

 Free energy of the ion-electron system (eV)
[...]
   0.951E+02 -.549E+02 0.353E+02   -.950E+02 0.546E+02 -.354E+02   -.190E+00 0.199E+00 0.142E+00   0.772E-03 0.393E-02 0.589E-03
   0.936E+01 -.905E+02 0.314E+02   -.963E+01 0.904E+02 -.312E+02   0.264E+00 0.165E+00 -.190E+00   0.195E-03 -.343E-03 -.307E-03
   0.977E+01 -.327E+02 -.854E+02   -.101E+02 0.325E+02 0.854E+02   0.291E+00 0.132E+00 0.626E-01   0.199E-03 0.111E-02 -.823E-03
   0.965E+01 -.114E+03 0.475E+01   -.101E+02 0.111E+03 -.379E+01   0.412E+00 0.244E+01 -.974E+00   0.139E-03 0.353E-02 -.366E-03
   0.609E+01 -.685E+02 -.166E+02   -.543E+01 0.686E+02 0.168E+02   -.656E+00 -.184E+00 -.148E+00   0.281E-03 0.190E-02 0.143E-03
   -.218E+01 -.618E+02 0.239E+02   0.155E+01 0.620E+02 -.243E+02   0.637E+00 -.231E+00 0.400E+00   -.133E-03 0.157E-02 -.362E-03
   -.151E+02 -.185E+03 0.189E+01   0.157E+02 0.186E+03 -.228E+01   -.568E+00 -.151E+01 0.422E+00   0.683E-04 0.322E-02 0.160E-03
   0.218E+01 0.618E+02 -.239E+02   -.155E+01 -.620E+02 0.243E+02   -.637E+00 0.231E+00 -.400E+00   0.133E-03 -.157E-02 0.362E-03
   -.609E+01 0.685E+02 0.166E+02   0.543E+01 -.686E+02 -.168E+02   0.656E+00 0.184E+00 0.148E+00   -.281E-03 -.190E-02 -.143E-03
   -.919E+01 -.176E+03 0.436E+02   0.900E+01 0.178E+03 -.443E+02   0.191E+00 -.147E+01 0.685E+00   -.188E-04 0.271E-02 -.281E-03
   -.759E+01 -.100E+03 -.186E+02   0.770E+01 0.100E+03 0.186E+02   -.120E+00 -.278E+00 0.149E-01   0.503E-04 0.196E-02 0.201E-03
   -.965E+01 0.114E+03 -.475E+01   0.101E+02 -.111E+03 0.379E+01   -.412E+00 -.244E+01 0.974E+00   -.139E-03 -.353E-02 0.366E-03
   0.919E+01 0.176E+03 -.436E+02   -.900E+01 -.178E+03 0.443E+02   -.191E+00 0.147E+01 -.685E+00   0.188E-04 -.271E-02 0.281E-03
   0.151E+02 0.185E+03 -.189E+01   -.157E+02 -.186E+03 0.228E+01   0.568E+00 0.151E+01 -.422E+00   -.683E-04 -.322E-02 -.160E-03
   -.171E+01 -.695E+02 0.261E+02   0.168E+01 0.699E+02 -.263E+02   0.736E-01 -.417E+00 0.141E+00   -.165E-04 0.115E-02 -.220E-03
   -.217E+02 -.208E+03 0.292E+01   0.221E+02 0.209E+03 -.320E+01   -.389E+00 -.109E+01 0.334E+00   0.122E-03 0.321E-02 0.357E-03
   0.171E+01 0.695E+02 -.261E+02   -.168E+01 -.699E+02 0.263E+02   -.736E-01 0.417E+00 -.141E+00   0.165E-04 -.115E-02 0.220E-03
   -.240E+02 0.108E+03 0.887E+01   0.239E+02 -.108E+03 -.883E+01   0.134E+00 -.417E-01 -.786E-01   -.295E-03 -.574E-02 0.674E-03
   0.759E+01 0.100E+03 0.186E+02   -.770E+01 -.100E+03 -.186E+02   0.120E+00 0.278E+00 -.149E-01   -.503E-04 -.196E-02 -.201E-03
   -.632E+00 -.168E+03 0.437E+02   0.563E+00 0.169E+03 -.442E+02   0.920E-01 -.116E+01 0.500E+00   -.184E-03 0.222E-02 -.102E-03
   -.936E+02 -.116E+03 -.530E+02   0.942E+02 0.117E+03 0.532E+02   -.763E+00 -.541E+00 -.259E+00   -.359E-05 0.207E-02 0.246E-03
   0.632E+00 0.168E+03 -.437E+02   -.563E+00 -.169E+03 0.442E+02   -.920E-01 0.116E+01 -.500E+00   0.184E-03 -.222E-02 0.102E-03
   -.630E+01 0.148E+03 -.211E+02   0.490E+01 -.154E+03 0.240E+02   0.142E+01 0.613E+01 -.294E+01   -.454E-03 -.630E-02 0.916E-03
   0.217E+02 0.208E+03 -.292E+01   -.221E+02 -.209E+03 0.320E+01   0.389E+00 0.109E+01 -.334E+00   -.122E-03 -.321E-02 -.357E-03
   0.896E+02 -.536E+02 0.705E+02   -.902E+02 0.542E+02 -.710E+02   0.627E+00 -.614E+00 0.508E+00   -.349E-04 0.695E-03 -.149E-04
   -.896E+02 0.536E+02 -.705E+02   0.902E+02 -.542E+02 0.710E+02   -.627E+00 0.614E+00 -.508E+00   0.349E-04 -.695E-03 0.149E-04
   0.936E+02 0.116E+03 0.530E+02   -.942E+02 -.117E+03 -.532E+02   0.763E+00 0.541E+00 0.259E+00   0.359E-05 -.207E-02 -.246E-03
   0.197E+02 0.135E+02 -.153E+02   -.171E+02 -.133E+02 0.151E+02   -.266E+01 -.149E+00 0.205E+00   0.714E-03 -.329E-02 -.718E-04
   0.849E+01 0.941E+02 -.153E+02   -.899E+01 -.938E+02 0.129E+02   0.476E+00 -.222E+00 0.250E+01   -.165E-04 -.309E-02 -.905E-03
   -.326E+02 0.119E+02 -.314E+01   0.306E+02 -.102E+02 0.399E+01   0.204E+01 -.165E+01 -.842E+00   -.659E-03 -.819E-03 0.264E-03
   0.421E+02 0.830E+02 -.420E+02   -.423E+02 -.827E+02 0.418E+02   0.165E+00 -.303E+00 0.164E+00   0.561E-03 -.732E-03 -.392E-03
   0.474E+02 0.319E+02 0.891E+02   -.475E+02 -.318E+02 -.890E+02   0.882E-01 -.797E-01 -.117E+00   0.425E-03 -.315E-02 0.972E-03
   0.534E+02 0.382E+02 -.458E+02   -.530E+02 -.383E+02 0.462E+02   -.293E+00 0.871E-01 -.407E+00   0.865E-03 -.517E-02 -.106E-02
   -.951E+02 0.549E+02 -.353E+02   0.950E+02 -.546E+02 0.354E+02   0.190E+00 -.199E+00 -.142E+00   -.772E-03 -.393E-02 -.589E-03
   -.936E+01 0.905E+02 -.314E+02   0.963E+01 -.904E+02 0.312E+02   -.264E+00 -.165E+00 0.190E+00   -.195E-03 0.343E-03 0.307E-03
   -.977E+01 0.327E+02 0.854E+02   0.101E+02 -.325E+02 -.854E+02   -.291E+00 -.132E+00 -.626E-01   -.199E-03 -.111E-02 0.823E-03
 -----------------------------------------------------------------------------------------------
   0.206E-03 0.560E-04 -.822E-04   0.497E-13 0.796E-12 -.568E-13   -.289E-14 0.125E-14 0.527E-15   0.109E-08 0.264E-09 0.185E-08
 
 
 POSITION                                       TOTAL-FORCE (eV/Angst)
 -----------------------------------------------------------------------------------
      4.09653      5.15227      5.36719        -0.016350     -0.030865      0.052716
     -0.41675     11.00023      2.25504         0.016350      0.030865     -0.052716
     -0.98568      4.50719      5.10964         0.010061      0.001572      0.002499
     -1.16691      6.69812      3.91710        -0.002723      0.008847      0.008959
      0.18982      6.72592      5.05523         0.002741     -0.007339      0.001253
     -1.31727      7.54658      5.46547         0.005576      0.005240     -0.003138
     -1.39642      4.38701      7.61112        -0.000639     -0.003488      0.002818
     -0.57506      6.31420      0.06583         0.001576      0.002420     -0.000730
      0.12251      5.20423      7.18554         0.000834     -0.004167     -0.006342
      3.99449      6.02528      3.07887         0.006644      0.018741      0.007277
      1.96596      6.06145      5.95689        -0.006245     -0.000845      0.014996
      4.47704      2.99066      3.26240         0.006823      0.005281     -0.001596
      5.69077      4.22327      2.88313        -0.000196     -0.004126     -0.004116
      4.37328      3.89367      1.74445        -0.006966      0.015302     -0.009026
      2.06289      4.69657      2.14441         0.001421      0.000225     -0.005797
      1.60955      5.57503      3.61452        -0.009514      0.003450      0.007494
      1.92447      3.82944      3.68663         0.000691      0.003107      0.000010
      2.28428      8.52753      5.83251        -0.002793      0.000120      0.008091
      2.91973      7.76383      4.36459         0.002416     -0.004482      0.006009
      4.02570      8.32126      5.62726         0.004634      0.007898      0.002065
      4.82598      7.17597      0.30460         0.013690      0.018053     -0.007206
      3.75132      5.78660      0.53868         0.002169     -0.001079     -0.003969
      3.08519      7.43295      0.46490        -0.000923      0.001194      0.001038
      6.17101      2.44665      0.36747         0.004203      0.004954      0.004298
      1.09665      2.09593      5.70567         0.009511      0.004650     -0.007641
      2.58314     14.05657      1.91656        -0.009511     -0.004650      0.007641
     -2.49123     13.70585      7.25476        -0.004203     -0.004954     -0.004298
      0.94327      2.57767      1.54509        -0.005603      0.001575     -0.007571
      6.27374      2.00623      4.59386        -0.001886     -0.006331     -0.003980
      2.68790      1.48998      2.90851        -0.014180      0.007574     -0.000592
     -2.59395     14.14627      3.02837         0.001886      0.006331      0.003980
      2.73651     13.57483      6.07714         0.005603     -0.001575      0.007571
      4.25993      0.71851      3.97742         0.009425      0.001885      0.002871
     -0.58015     15.43399      3.64481        -0.009425     -0.001885     -0.002871
      0.99189     14.66252      4.71372         0.014180     -0.007574      0.000592
      4.66546     11.64531      2.51259        -0.010061     -0.001572     -0.002499
     -0.31471     10.12722      4.54336        -0.006644     -0.018741     -0.007277
      1.71383     10.09105      1.66534         0.006245      0.000845     -0.014996
      4.84669      9.45438      3.70513         0.002723     -0.008847     -0.008959
      3.48997      9.42658      2.56700        -0.002741      0.007339     -0.001253
      4.99705      8.60592      2.15676        -0.005576     -0.005240      0.003138
      5.07620     11.76549      0.01111         0.000639      0.003488     -0.002818
      4.25485      9.83830      7.55640        -0.001576     -0.002420      0.000730
      3.55727     10.94827      0.43669        -0.000834      0.004167      0.006342
     -0.79726     13.16184      4.35983        -0.006823     -0.005281      0.001596
     -2.01098     11.92923      4.73910         0.000196      0.004126      0.004116
     -0.69349     12.25883      5.87778         0.006966     -0.015302      0.009026
      1.61690     11.45593      5.47783        -0.001421     -0.000225      0.005797
      2.07023     10.57747      4.00771         0.009514     -0.003450     -0.007494
      1.75532     12.32306      3.93560        -0.000691     -0.003107     -0.000010
      1.39550      7.62497      1.78972         0.002793     -0.000120     -0.008091
      0.76005      8.38866      3.25764        -0.002416      0.004482     -0.006009
     -0.34592      7.83124      1.99497        -0.004634     -0.007898     -0.002065
     -1.14619      8.97652      7.31763        -0.013690     -0.018053      0.007206
     -0.07154     10.36590      7.08355        -0.002169      0.001079      0.003969
      0.59460      8.71955      7.15733         0.000923     -0.001194     -0.001038
     -1.42198      5.36883      5.64769         0.012628      0.000992      0.014782
     -0.90563      6.64997      4.98238         0.001124      0.015207     -0.025631
     -0.97487      5.26986      7.11194        -0.003242     -0.015449     -0.017489
      3.62849      3.56458      6.14235        -0.005268      0.062718     -0.011303
      3.73990      5.03623      3.50034         0.030142     -0.025949     -0.070580
      2.97330      6.47522      6.14399        -0.001693     -0.021347     -0.016920
      3.38902      2.46815      6.64054        -0.004600      0.034925      0.033376
      4.62030      3.98408      2.81362        -0.010654      0.017494     -0.003750
      2.25271      4.77360      3.22729        -0.007637     -0.004518     -0.003324
      3.05426      7.83887      5.45156        -0.000248      0.020375     -0.014577
      3.84450      6.75972      0.03909         0.007669     -0.037527      0.022342
      3.16871      1.17643      7.15697        -0.025420     -0.015456     -0.026611
      4.87114      0.73348      0.35646         0.010446     -0.052666     -0.015739
      1.98397      0.46893      6.80623         0.001981     -0.016454     -0.003258
      6.03861      1.42508      0.72215         0.034603     -0.016347      0.014522
      1.69581     15.68357      0.81600        -0.001981      0.016454      0.003258
     -1.19136     15.41902      7.26577        -0.010446      0.052666      0.015739
      0.96736      1.06478      6.03718         0.007114     -0.045877      0.034552
      7.03003      0.83865      1.50386        -0.000354      0.023170     -0.082020
      0.51107     14.97607      0.46526         0.025420      0.015456      0.026611
      2.71243     15.08772      1.58505        -0.007114      0.045877     -0.034552
     -2.35883     14.72742      6.90008        -0.034603      0.016347     -0.014522
     -0.19202      0.37438      5.68967         0.044202      0.006271     -0.056334
      0.82226      1.54710      1.88053         0.029369     -0.022339      0.045878
      3.87180     15.77812      1.93256        -0.044202     -0.006271      0.056334
      0.29076     13.68435      0.98169         0.004600     -0.034925     -0.033376
     -3.35025     15.31385      6.11837         0.000354     -0.023170      0.082020
      6.15783      0.97050      4.91458         0.013498     -0.002496      0.016199
      1.78948      0.93845      2.63475        -0.062624      0.041281     -0.061257
     -2.47804     15.18200      2.70765        -0.013498      0.002496     -0.016199
      0.05129     12.58792      1.47988         0.005268     -0.062718      0.011303
      2.85752     14.60540      5.74170        -0.029369      0.022339     -0.045878
      5.04170      0.25505      4.57517         0.036000     -0.022136     -0.046209
     -1.36192     15.89745      3.04706        -0.036000      0.022136      0.046209
      1.89030     15.21405      4.98748         0.062624     -0.041281      0.061257
      5.10176     10.78367      1.97454        -0.012628     -0.000992     -0.014782
     -0.06012     11.11627      4.12189        -0.030142      0.025949      0.070580
      0.70648      9.67728      1.47824         0.001693      0.021347      0.016920
      4.58541      9.50253      2.63985        -0.001124     -0.015207      0.025631
      4.65465     10.88264      0.51029         0.003242      0.015449      0.017489
     -0.94051     12.16842      4.80861         0.010654     -0.017494      0.003750
      1.42708     11.37890      4.39494         0.007637      0.004518      0.003324
      0.62553      8.31363      2.17067         0.000248     -0.020375      0.014577
     -0.16472      9.39278      7.58314        -0.007669      0.037527     -0.022342
 -----------------------------------------------------------------------------------
    total drift:                                0.000206      0.000056     -0.000082


--------------------------------------------------------------------------------------------------------



  FREE ENERGIE OF THE ION-ELECTRON SYSTEM (eV)
  ---------------------------------------------------
  free  energy   TOTEN  =      -612.04228636 eV

  energy  without entropy=     -612.04228636  energy(sigma->0) =     -612.04228636
 


--------------------------------------------------------------------------------------------------------


    POTLOK:  cpu time    0.8052: real time    0.8100


--------------------------------------------------------------------------------------------------------


 writing wavefunctions
     LOOP+:  cpu time  473.6968: real time  475.9286
    4ORBIT:  cpu time    0.0000: real time    0.0000
 


 total charge     
 
# of ion       s       p       d       tot
------------------------------------------
    1        0.724   1.014   0.000   1.739
    2        0.724   1.014   0.000   1.739
    3        0.641   0.044   0.000   0.686
    4        0.647   0.045   0.000   0.691
    5        0.645   0.044   0.000   0.689
    6        0.647   0.044   0.000   0.692
    7        0.645   0.045   0.000   0.689
    8        0.647   0.044   0.000   0.692
    9        0.643   0.044   0.000   0.686
   10        0.642   0.045   0.000   0.687
   11        0.642   0.045   0.000   0.687
   12        0.645   0.044   0.000   0.689
   13        0.645   0.044   0.000   0.689
   14        0.641   0.044   0.000   0.686
   15        0.643   0.043   0.000   0.686
   16        0.646   0.045   0.000   0.691
   17        0.643   0.044   0.000   0.687
   18        0.643   0.044   0.000   0.687
   19        0.646   0.045   0.000   0.691
   20        0.647   0.044   0.000   0.691
   21        0.648   0.044   0.000   0.692
   22        0.644   0.045   0.000   0.689
   23        0.645   0.044   0.000   0.689
   24        0.644   0.048   0.000   0.693
   25        0.642   0.048   0.000   0.690
   26        0.642   0.048   0.000   0.690
   27        0.644   0.048   0.000   0.693
   28        0.645   0.047   0.000   0.692
   29        0.645   0.047   0.000   0.692
   30        0.648   0.047   0.000   0.696
   31        0.645   0.047   0.000   0.692
   32        0.645   0.047   0.000   0.692
   33        0.650   0.048   0.000   0.698
   34        0.650   0.048   0.000   0.698
   35        0.648   0.047   0.000   0.696
   36        0.641   0.044   0.000   0.686
   37        0.642   0.045   0.000   0.687
   38        0.642   0.045   0.000   0.687
   39        0.647   0.045   0.000   0.691
   40        0.645   0.044   0.000   0.689
   41        0.647   0.044   0.000   0.692
   42        0.645   0.045   0.000   0.689
   43        0.647   0.044   0.000   0.692
   44        0.643   0.044   0.000   0.686
   45        0.645   0.044   0.000   0.689
   46        0.645   0.044   0.000   0.689
   47        0.641   0.044   0.000   0.686
   48        0.643   0.043   0.000   0.686
   49        0.646   0.045   0.000   0.691
   50        0.643   0.044   0.000   0.687
   51        0.643   0.044   0.000   0.687
   52        0.646   0.045   0.000   0.691
   53        0.647   0.044   0.000   0.691
   54        0.648   0.044   0.000   0.692
   55        0.644   0.045   0.000   0.689
   56        0.645   0.044   0.000   0.689
   57        0.822   1.738   0.000   2.560
   58        0.838   1.782   0.000   2.620
   59        0.836   1.781   0.000   2.617
   60        0.905   1.710   0.000   2.616
   61        0.823   1.736   0.000   2.559
   62        0.823   1.741   0.000   2.564
   63        0.914   1.756   0.000   2.671
   64        0.837   1.781   0.000   2.618
   65        0.837   1.780   0.000   2.617
   66        0.838   1.783   0.000   2.621
   67        0.838   1.783   0.000   2.621
   68        0.855   1.781   0.000   2.636
   69        0.861   1.773   0.000   2.634
   70        0.861   1.773   0.000   2.634
   71        0.870   1.778   0.000   2.648
   72        0.861   1.773   0.000   2.634
   73        0.861   1.773   0.000   2.634
   74        0.868   1.777   0.000   2.645
   75        0.864   1.780   0.000   2.645
   76        0.855   1.781   0.000   2.636
   77        0.868   1.777   0.000   2.645
   78        0.870   1.778   0.000   2.648
   79        0.865   1.778   0.000   2.643
   80        0.869   1.775   0.000   2.644
   81        0.865   1.778   0.000   2.643
   82        0.914   1.756   0.000   2.671
   83        0.864   1.780   0.000   2.645
   84        0.869   1.776   0.000   2.645
   85        0.868   1.775   0.000   2.643
   86        0.869   1.776   0.000   2.645
   87        0.905   1.710   0.000   2.616
   88        0.869   1.775   0.000   2.644
   89        0.868   1.774   0.000   2.643
   90        0.868   1.774   0.000   2.643
   91        0.868   1.775   0.000   2.643
   92        0.822   1.738   0.000   2.560
   93        0.823   1.736   0.000   2.559
   94        0.823   1.741   0.000   2.564
   95        0.838   1.782   0.000   2.620
   96        0.836   1.781   0.000   2.617
   97        0.837   1.781   0.000   2.618
   98        0.837   1.780   0.000   2.617
   99        0.838   1.783   0.000   2.621
  100        0.838   1.783   0.000   2.621
--------------------------------------------------
tot         73.926  82.291   0.000 156.218
 

 total amount of memory used by VASP MPI-rank0   136637. kBytes
=======================================================================

   base      :      30000. kBytes
   nonlr-proj:      26722. kBytes
   fftplans  :      11823. kBytes
   grid      :      40203. kBytes
   one-center:        307. kBytes
   wavefun   :      27582. kBytes
 
  
  
 General timing and accounting informations for this job:
 ========================================================
  
                  Total CPU time used (sec):      534.446
                            User time (sec):      504.399
                          System time (sec):       30.046
                         Elapsed time (sec):      537.543
  
                   Maximum memory used (kb):      411408.
                   Average memory used (kb):           0.
  
                          Minor page faults:       194149
                          Major page faults:            0
                 Voluntary context switches:         1963
